LAMMPS data file via write_data, version 29 Sep 2021, timestep = 61

168 atoms
3 atom types
156 bonds
2 bond types
288 angles
3 angle types
324 dihedrals
3 dihedral types

0 62.4 xlo xhi
0 62.4 ylo yhi
0 62.4 zlo zhi

Masses

1 12.011
2 12.011
3 1.008

Pair Coeffs # lj/cut/coul/long

1 0.066 3.5
2 0.066 3.5
3 0.03 2.5

Bond Coeffs # harmonic

1 268 1.529
2 340 1.09

Angle Coeffs # harmonic

1 58.35 112.7
2 33 107.8
3 37.5 110.7

Dihedral Coeffs # opls

1 1.3 -0.05 0.2 0
2 0 0 0.3 0
3 0 0 0.3 0

Atoms # full

168 12 3 0.06 25.492519274574963 4.907653795592652 4.896423187054945 0 0 0
167 12 3 0.06 24.613741575406625 3.6708107373859318 4.0045783003154645 0 0 0
8 1 2 -0.12 2.530866552617906 0.7920440752851428 0.32049968870810974 0 0 0
9 1 3 0.06 2.571451976042795 1.4329427556800274 1.2024194249087559 0 0 0
14 1 3 0.06 4.68562816199059 0.4936012717608044 0.27325565610170527 0 0 0
166 12 3 0.06 24.597329409255003 3.669733119382613 5.767745980178982 0 0 0
165 12 1 -0.18 24.579875713166626 4.311637241681566 4.886319716501545 0 0 0
47 4 2 -0.12 1.1955189195670408 4.386730980724902 0.3288045400199896 0 0 0
49 4 3 0.06 1.163777735220908 3.7408918720907387 1.2075535766003587 0 0 0
50 4 2 -0.12 2.498144234237349 5.197095912627114 0.3306452743208232 0 0 0
51 4 3 0.06 2.5288425593797075 5.841729641184827 1.2102949352317867 0 0 0
53 4 1 -0.18 3.7461811355005294 4.30836223012942 0.3128956995804832 0 0 0
54 4 3 0.06 3.783853770607813 3.6606399582150497 1.1894562943396458 0 0 0
56 4 3 0.06 4.655086195346166 4.910168802150516 0.3074602933440452 0 0 0
126 9 3 0.06 25.521478716456294 0.5322957833086697 4.9050507778370385 0 0 0
84 6 3 0.06 25.492521938205723 4.907653800206785 0.3035510761826871 0 0 0
82 6 3 0.06 24.613752388463972 3.6708164492529733 1.1954133903614643 0 0 0
92 7 2 -0.12 2.530868570300931 0.7920445081775886 4.879509702750968 0 0 0
93 7 3 0.06 2.5507195603816184 1.4570778605895223 5.743765161845758 0 0 0
94 7 3 0.06 2.571460854580329 1.432949516094856 3.997594928002982 0 0 0
98 7 3 0.06 4.685630851805478 0.4936010540695453 4.926767887665461 0 0 0
81 6 1 -0.18 24.57987794757663 4.311637561823249 0.31366799988516003 0 0 0
42 3 3 0.06 25.52148134596791 0.5322953241500776 0.29492674748746794 0 0 0
164 12 3 0.06 23.370291630009 5.8567393017954865 3.9991806701279766 0 0 0
131 10 2 -0.12 1.1955207600905253 4.386730499348586 4.871193793417176 0 0 0
132 10 3 0.06 1.16378627196577 3.7408885622916723 3.99244679874357 0 0 0
133 10 3 0.06 1.1766637756654812 3.726346658988052 5.739076792056313 0 0 0
134 10 2 -0.12 2.4981462785338966 5.197095119362515 4.869359064741547 0 0 0
135 10 3 0.06 2.520110006086807 5.8592070404817935 5.736072463644563 0 0 0
136 10 3 0.06 2.5288503544768286 5.8417267269959146 3.989708048603726 0 0 0
137 10 1 -0.18 3.746183512346899 4.308361402894826 4.88711748461818 0 0 0
138 10 3 0.06 3.767068572541191 3.6735132631778975 5.773603102249843 0 0 0
139 10 3 0.06 3.7838613132093672 3.6606382996279776 4.010557437547802 0 0 0
140 10 3 0.06 4.655089009729877 4.910167928734282 4.892557617853607 0 0 0
15 2 1 -0.18 10.388367986744829 0.893326043311343 0.30715918600262376 0 0 0
16 2 3 0.06 10.358355235107064 1.537821819650121 1.1863873992215812 0 0 0
22 2 2 -0.12 12.938980260297425 0.7947452061988335 0.31139136238639203 0 0 0
23 2 3 0.06 12.97912316450595 1.4393961464081266 1.1906439468290972 0 0 0
28 2 3 0.06 15.093561176202822 0.49507069633570433 0.2684298879644422 0 0 0
57 5 1 -0.18 10.378566738628727 5.301740231509773 0.28640530464298863 0 0 0
58 5 3 0.06 10.33594043385628 5.944760629700687 1.166183618027792 0 0 0
60 5 3 0.06 9.466408939729632 4.70492959719663 0.2684323938673573 0 0 0
61 5 2 -0.12 11.620988773989751 4.405255582635218 0.31139705974730686 0 0 0
63 5 3 0.06 11.58084627896918 3.7606131758659975 1.190655881895309 0 0 0
64 5 2 -0.12 12.93026829344109 5.204959641440836 0.3168703120721972 0 0 0
65 5 3 0.06 12.962493535613335 5.851998215964057 1.1947031294483073 0 0 0
67 5 1 -0.18 14.17160125392079 4.306673240228402 0.3071629675529049 0 0 0
68 5 3 0.06 14.201614323057255 3.6621853243472464 1.1863972205250484 0 0 0
70 5 3 0.06 15.085050710060147 4.9016489528127005 0.30268657199784044 0 0 0
99 8 1 -0.18 10.388367779423689 0.8933266699746585 4.892841514980663 0 0 0
100 8 3 0.06 10.36885436825365 1.5317671320835538 5.776769326657876 0 0 0
101 8 3 0.06 10.358357309387653 1.5378266937951115 4.013616427751613 0 0 0
106 8 2 -0.12 12.938980136637861 0.7947459947076732 4.8886136312640955 0 0 0
107 8 3 0.06 12.9603031923359 1.4560840947311728 5.755707536221814 0 0 0
108 8 3 0.06 12.979122750511529 1.4394030520554737 4.00936567947934 0 0 0
112 8 3 0.06 15.093561224829685 0.49507101989792723 4.931570206894411 0 0 0
141 11 1 -0.18 10.378566727720006 5.301739649627425 4.913592343783494 0 0 0
142 11 3 0.06 10.370228672858197 5.942267313753489 5.79625752989869 0 0 0
143 11 3 0.06 10.335941419686995 5.944753370340788 4.033809137368225 0 0 0
144 11 3 0.06 9.466408800689582 4.704929262335422 4.931568412107073 0 0 0
145 11 2 -0.12 11.620988817129435 4.40525478157648 4.888608042992911 0 0 0
146 11 3 0.06 11.580846413251177 3.760606234461557 4.009353877078422 0 0 0
147 11 3 0.06 11.599665487868295 3.743908094952761 5.755695165386324 0 0 0
148 11 2 -0.12 12.9302683285269 5.2049588472613415 4.883128494409187 0 0 0
149 11 3 0.06 12.961336831209803 5.8643950834022895 5.751581881232462 0 0 0
150 11 3 0.06 12.962491760918256 5.851992671592322 4.005292263424564 0 0 0
151 11 1 -0.18 14.171601371446785 4.306672618683047 4.8928374031579125 0 0 0
152 11 3 0.06 14.191112769815605 3.6682235979212536 5.776759261291679 0 0 0
153 11 3 0.06 14.201612025530093 3.6621803921904594 4.013606322468222 0 0 0
154 11 3 0.06 15.085050725656066 4.901648551235382 4.8973076592634825 0 0 0
29 3 1 -0.18 20.813790412019845 0.8916526099676703 0.31289451365807247 0 0 0
30 3 3 0.06 20.776124660201624 1.5393816234070865 1.1894499996711214 0 0 0
36 3 2 -0.12 23.36445153153965 0.8132619929411014 0.3287997265187487 0 0 0
37 3 3 0.06 23.39620013645459 1.4591072776446412 1.2075439549864735 0 0 0
71 6 1 -0.18 20.786222591541158 5.303628888259785 0.28984442206917704 0 0 0
72 6 3 0.06 20.74228564636027 5.950633230447195 1.1665909413725173 0 0 0
74 6 3 0.06 19.87433478550339 4.706420907516299 0.2732592694433496 0 0 0
75 6 2 -0.12 22.02909522992633 4.40796318129525 0.3205046508487771 0 0 0
77 6 3 0.06 21.988505254148503 3.7670714177750004 1.2024292537537795 0 0 0
78 6 2 -0.12 23.337686345838435 5.208639208624618 0.3238284901567554 0 0 0
79 6 3 0.06 23.37030166634552 5.856744834800025 1.2008094369288989 0 0 0
113 9 1 -0.18 20.813787860212912 0.8916529893183346 4.88711904885009 0 0 0
114 9 3 0.06 20.792905958210486 1.5264939016232595 5.773609584105421 0 0 0
115 9 3 0.06 20.77611662468522 1.5393827978226964 4.010564084387677 0 0 0
120 9 2 -0.12 23.36444955208266 0.8132627022552846 4.871198466915583 0 0 0
121 9 3 0.06 23.383311565257273 1.4736397830460826 5.739086636344146 0 0 0
122 9 3 0.06 23.39619107501819 1.459110776799299 3.992456240042988 0 0 0
155 12 1 -0.18 20.786220312076694 5.303628302562952 4.9101661064959865 0 0 0
156 12 3 0.06 20.77884771572234 5.940166571427955 5.795715115289785 0 0 0
157 12 3 0.06 20.742276936410082 5.9506244797297665 4.033413615631341 0 0 0
158 12 3 0.06 19.87433225387101 4.706420421424885 4.926763423003662 0 0 0
159 12 2 -0.12 22.029093413506562 4.407962532636055 4.8795045190000605 0 0 0
160 12 3 0.06 21.988496978235574 3.767064495179522 3.997584817127202 0 0 0
161 12 3 0.06 22.009236194621614 3.7429225301082787 5.7437546004522835 0 0 0
162 12 2 -0.12 23.33768441883934 5.208638716302089 4.876165419433916 0 0 0
163 12 3 0.06 23.367224627419187 5.867001522143967 5.745460382998074 0 0 0
18 2 3 0.06 9.474919587863557 0.2983490871590675 0.30268978507469646 0 0 0
102 8 3 0.06 9.474919466694715 0.2983495092470818 4.897304969407488 0 0 0
32 3 3 0.06 19.904880798952046 0.28985347245496484 0.30746582042120113 0 0 0
33 3 2 -0.12 22.061819174698496 0.0029085414483418504 0.3306486734346251 0 0 0
116 9 3 0.06 19.904877956855177 0.2898536562951364 4.892552653510103 0 0 0
117 9 2 -0.12 22.061817205374577 0.0029092131431980306 4.869355855088147 0 0 0
83 6 3 0.06 24.597322258683246 3.6697276039536533 61.832245608793905 0 0 -1
10 1 3 0.06 2.550723372531182 1.4570835190540112 61.85624934863149 0 0 -1
80 6 3 0.06 23.36721943808541 5.86699704786003 61.854529611081404 0 0 -1
48 4 3 0.06 1.1766681266028691 3.7263442655597596 61.86092376342958 0 0 -1
52 4 3 0.06 2.520112645994467 5.859205461085457 61.863930479140166 0 0 -1
55 4 3 0.06 3.7670719727012814 3.6735136894053992 61.82641092239383 0 0 -1
17 2 3 0.06 10.368857168033626 1.5317708178695226 61.82323453924609 0 0 -1
24 2 3 0.06 12.960302961445937 1.4560893163771342 61.84430231390985 0 0 -1
59 5 3 0.06 10.370229624659524 5.942261031556101 61.80373525930664 0 0 -1
62 5 3 0.06 11.599665614190116 3.743902859146166 61.84431481394158 0 0 -1
66 5 3 0.06 12.961335152434113 5.864391041618883 61.848413406720425 0 0 -1
69 5 3 0.06 14.191109899032693 3.668219831286442 61.82324431872586 0 0 -1
31 3 3 0.06 20.792902734862206 1.5264938782388948 61.826404801111025 0 0 -1
38 3 3 0.06 23.383307345098608 1.4736418944999952 61.860913741540834 0 0 -1
73 6 3 0.06 20.77884314046065 5.940158390841196 61.80428955758075 0 0 -1
76 6 3 0.06 22.009232243893987 3.742917151522975 61.856259635364935 0 0 -1
5 1 2 -0.12 1.2222814810528262 62.39135808392809 0.3238309630037473 0 -1 0
7 1 3 0.06 1.1896723576603234 61.74325792562277 1.2008163218643078 0 -1 0
11 1 1 -0.18 3.7737450830136297 62.29638704482542 0.28984556118140475 0 -1 0
12 1 3 0.06 3.8176871169057387 61.649389686096015 1.1665966779299275 0 -1 0
89 7 2 -0.12 1.222283423549485 62.39135866702433 4.876162754537312 0 -1 0
90 7 3 0.06 1.1896825265847206 61.74326360970641 3.999173553136591 0 -1 0
91 7 3 0.06 1.1927463202073527 61.732989284459784 5.745453120854094 0 -1 0
95 7 1 -0.18 3.773747374456948 62.296387134102226 4.910165445975899 0 -1 0
96 7 3 0.06 3.781123880073047 61.65984205290694 5.795709299755581 0 -1 0
97 7 3 0.06 3.8176959645247517 61.64939805661885 4.033408268912248 0 -1 0
125 9 3 0.06 24.65899835039906 61.685036551783824 4.010564287100524 0 -1 0
19 2 2 -0.12 11.62970112154757 62.395040654766305 0.31687340897469163 0 -1 0
21 2 3 0.06 11.597477465448573 61.74801016872248 1.1947121232775322 0 -1 0
25 2 1 -0.18 14.181402915737236 62.298260604586496 0.2864080700234887 0 -1 0
26 2 3 0.06 14.224028468361833 61.65524801009421 1.1661923797204516 0 -1 0
124 9 3 0.06 24.631944781795298 61.68688560341345 5.773400940233952 0 -1 0
103 8 2 -0.12 11.629700998315775 62.395041443788294 4.883125581480804 0 -1 0
104 8 3 0.06 11.597478983827033 61.74801564950775 4.005283501567662 0 -1 0
105 8 3 0.06 11.598632309307584 61.73559680444065 5.751572612718491 0 -1 0
109 8 1 -0.18 14.18140283875822 62.29826116889935 4.913589212256348 0 -1 0
110 8 3 0.06 14.18974081224013 61.657724919464655 5.796248497475216 0 -1 0
111 8 3 0.06 14.224027136418481 61.65525515721935 4.033800072150564 0 -1 0
123 9 1 -0.18 24.614528911104784 62.327396900788756 4.8907812149387375 0 -1 0
40 3 3 0.06 24.65900895492015 61.685034177514986 1.1894196419930623 0 -1 0
35 3 3 0.06 22.031116951710725 61.75828174979869 1.2103030676238011 0 -1 0
39 3 1 -0.18 24.614531299632517 62.32739633060599 0.3092040870475867 0 -1 0
119 9 3 0.06 22.03984686075677 61.74079076205088 5.736063995413558 0 -1 0
118 9 3 0.06 22.031109208970662 61.758284477341086 3.989700150016775 0 -1 0
6 1 3 0.06 1.1927518929694891 61.732993700142075 61.85453663734307 0 -1 -1
13 1 3 0.06 3.781128871033835 61.65985086896758 61.80429576543491 0 -1 -1
20 2 3 0.06 11.598633932918 61.73560079341146 61.848422914634135 0 -1 -1
27 2 3 0.06 14.189739677839615 61.65773111040721 61.80374399845655 0 -1 -1
34 3 3 0.06 22.039843797256285 61.74079241741633 61.86393919104287 0 -1 -1
41 3 3 0.06 24.631938557706896 61.68688652390238 61.82658291118894 0 -1 -1
46 4 3 0.06 61.43848791172232 4.667677671441073 0.2949316480624419 -1 0 0
130 10 3 0.06 61.43849045405373 4.667678021630918 4.905046699682458 -1 0 0
1 1 1 -0.18 62.38008220051034 0.8883498546639401 0.31366650548724123 -1 0 0
2 1 3 0.06 62.34620433420165 1.5291766605207975 1.1954079965689859 -1 0 0
43 4 1 -0.18 62.34543182166656 5.272585453922091 0.30920387658462556 -1 0 0
44 4 3 0.06 62.30094861230214 5.914953025347892 1.1894148961921176 -1 0 0
85 7 1 -0.18 62.380084682373365 0.888350560930719 4.886320703560108 -1 0 0
86 7 3 0.06 62.36262439714106 1.5302488740486144 5.767751507555767 -1 0 0
87 7 3 0.06 62.34621581619132 1.5291828161066294 4.004583229707247 -1 0 0
127 10 1 -0.18 62.34543429495983 5.272585441130785 4.890781807934406 -1 0 0
128 10 3 0.06 62.32801173922083 5.913090062285666 5.773405888079091 -1 0 0
129 10 3 0.06 62.30095917436863 5.914951045544552 4.010569295306587 -1 0 0
4 1 3 0.06 61.467442706395445 0.29232584114883764 0.303555179186792 -1 0 0
88 7 3 0.06 61.46744548565978 0.2923264569675794 4.896418243546164 -1 0 0
3 1 3 0.06 62.362631426357765 1.5302540702488996 61.83223960520944 -1 0 -1
45 4 3 0.06 62.328017391553004 5.913088389604377 61.82657821860756 -1 0 -1

Velocities

168 0 0 0
167 0 0 0
8 0 0 0
9 0 0 0
14 0 0 0
166 0 0 0
165 0 0 0
47 0 0 0
49 0 0 0
50 0 0 0
51 0 0 0
53 0 0 0
54 0 0 0
56 0 0 0
126 0 0 0
84 0 0 0
82 0 0 0
92 0 0 0
93 0 0 0
94 0 0 0
98 0 0 0
81 0 0 0
42 0 0 0
164 0 0 0
131 0 0 0
132 0 0 0
133 0 0 0
134 0 0 0
135 0 0 0
136 0 0 0
137 0 0 0
138 0 0 0
139 0 0 0
140 0 0 0
15 0 0 0
16 0 0 0
22 0 0 0
23 0 0 0
28 0 0 0
57 0 0 0
58 0 0 0
60 0 0 0
61 0 0 0
63 0 0 0
64 0 0 0
65 0 0 0
67 0 0 0
68 0 0 0
70 0 0 0
99 0 0 0
100 0 0 0
101 0 0 0
106 0 0 0
107 0 0 0
108 0 0 0
112 0 0 0
141 0 0 0
142 0 0 0
143 0 0 0
144 0 0 0
145 0 0 0
146 0 0 0
147 0 0 0
148 0 0 0
149 0 0 0
150 0 0 0
151 0 0 0
152 0 0 0
153 0 0 0
154 0 0 0
29 0 0 0
30 0 0 0
36 0 0 0
37 0 0 0
71 0 0 0
72 0 0 0
74 0 0 0
75 0 0 0
77 0 0 0
78 0 0 0
79 0 0 0
113 0 0 0
114 0 0 0
115 0 0 0
120 0 0 0
121 0 0 0
122 0 0 0
155 0 0 0
156 0 0 0
157 0 0 0
158 0 0 0
159 0 0 0
160 0 0 0
161 0 0 0
162 0 0 0
163 0 0 0
18 0 0 0
102 0 0 0
32 0 0 0
33 0 0 0
116 0 0 0
117 0 0 0
83 0 0 0
10 0 0 0
80 0 0 0
48 0 0 0
52 0 0 0
55 0 0 0
17 0 0 0
24 0 0 0
59 0 0 0
62 0 0 0
66 0 0 0
69 0 0 0
31 0 0 0
38 0 0 0
73 0 0 0
76 0 0 0
5 0 0 0
7 0 0 0
11 0 0 0
12 0 0 0
89 0 0 0
90 0 0 0
91 0 0 0
95 0 0 0
96 0 0 0
97 0 0 0
125 0 0 0
19 0 0 0
21 0 0 0
25 0 0 0
26 0 0 0
124 0 0 0
103 0 0 0
104 0 0 0
105 0 0 0
109 0 0 0
110 0 0 0
111 0 0 0
123 0 0 0
40 0 0 0
35 0 0 0
39 0 0 0
119 0 0 0
118 0 0 0
6 0 0 0
13 0 0 0
20 0 0 0
27 0 0 0
34 0 0 0
41 0 0 0
46 0 0 0
130 0 0 0
1 0 0 0
2 0 0 0
43 0 0 0
44 0 0 0
85 0 0 0
86 0 0 0
87 0 0 0
127 0 0 0
128 0 0 0
129 0 0 0
4 0 0 0
88 0 0 0
3 0 0 0
45 0 0 0

Bonds

1 2 8 9
2 2 8 10
3 1 8 11
4 2 165 166
5 2 165 167
6 2 165 168
7 2 47 48
8 2 47 49
9 1 47 50
10 2 50 51
11 2 50 52
12 1 50 53
13 2 53 54
14 2 53 55
15 2 53 56
16 2 92 93
17 2 92 94
18 1 92 95
19 2 81 82
20 2 81 83
21 2 81 84
22 2 131 132
23 2 131 133
24 1 131 134
25 2 134 135
26 2 134 136
27 1 134 137
28 2 137 138
29 2 137 139
30 2 137 140
31 2 15 16
32 2 15 17
33 2 15 18
34 1 15 19
35 2 22 23
36 2 22 24
37 1 22 25
38 2 57 58
39 2 57 59
40 2 57 60
41 1 57 61
42 2 61 62
43 2 61 63
44 1 61 64
45 2 64 65
46 2 64 66
47 1 64 67
48 2 67 68
49 2 67 69
50 2 67 70
51 2 99 100
52 2 99 101
53 2 99 102
54 1 99 103
55 2 106 107
56 2 106 108
57 1 106 109
58 2 141 142
59 2 141 143
60 2 141 144
61 1 141 145
62 2 145 146
63 2 145 147
64 1 145 148
65 2 148 149
66 2 148 150
67 1 148 151
68 2 151 152
69 2 151 153
70 2 151 154
71 2 29 30
72 2 29 31
73 2 29 32
74 1 29 33
75 2 36 37
76 2 36 38
77 1 36 39
78 2 71 72
79 2 71 73
80 2 71 74
81 1 71 75
82 2 75 76
83 2 75 77
84 1 75 78
85 2 78 79
86 2 78 80
87 1 78 81
88 2 113 114
89 2 113 115
90 2 113 116
91 1 113 117
92 2 120 121
93 2 120 122
94 1 120 123
95 2 155 156
96 2 155 157
97 2 155 158
98 1 155 159
99 2 159 160
100 2 159 161
101 1 159 162
102 2 162 163
103 2 162 164
104 1 162 165
105 2 33 34
106 2 33 35
107 1 33 36
108 2 117 118
109 2 117 119
110 1 117 120
111 2 5 6
112 2 5 7
113 1 5 8
114 2 11 12
115 2 11 13
116 2 11 14
117 2 89 90
118 2 89 91
119 1 89 92
120 2 95 96
121 2 95 97
122 2 95 98
123 2 19 20
124 2 19 21
125 1 19 22
126 2 25 26
127 2 25 27
128 2 25 28
129 2 103 104
130 2 103 105
131 1 103 106
132 2 109 110
133 2 109 111
134 2 109 112
135 2 123 124
136 2 123 125
137 2 123 126
138 2 39 40
139 2 39 41
140 2 39 42
141 2 1 2
142 2 1 3
143 2 1 4
144 1 1 5
145 2 43 44
146 2 43 45
147 2 43 46
148 1 43 47
149 2 85 86
150 2 85 87
151 2 85 88
152 1 85 89
153 2 127 128
154 2 127 129
155 2 127 130
156 1 127 131

Angles

1 1 5 8 11
2 2 9 8 10
3 3 9 8 11
4 3 10 8 11
5 3 5 8 9
6 3 5 8 10
7 2 166 165 167
8 2 166 165 168
9 2 167 165 168
10 3 162 165 166
11 3 162 165 167
12 3 162 165 168
13 1 43 47 50
14 2 48 47 49
15 3 43 47 48
16 3 43 47 49
17 3 48 47 50
18 3 49 47 50
19 1 47 50 53
20 2 51 50 52
21 3 51 50 53
22 3 52 50 53
23 3 47 50 51
24 3 47 50 52
25 2 54 53 55
26 2 54 53 56
27 2 55 53 56
28 3 50 53 54
29 3 50 53 55
30 3 50 53 56
31 1 89 92 95
32 2 93 92 94
33 3 93 92 95
34 3 94 92 95
35 3 89 92 93
36 3 89 92 94
37 2 82 81 83
38 2 82 81 84
39 2 83 81 84
40 3 78 81 82
41 3 78 81 83
42 3 78 81 84
43 1 127 131 134
44 2 132 131 133
45 3 127 131 132
46 3 127 131 133
47 3 132 131 134
48 3 133 131 134
49 1 131 134 137
50 2 135 134 136
51 3 135 134 137
52 3 136 134 137
53 3 131 134 135
54 3 131 134 136
55 2 138 137 139
56 2 138 137 140
57 2 139 137 140
58 3 134 137 138
59 3 134 137 139
60 3 134 137 140
61 2 16 15 17
62 2 16 15 18
63 2 17 15 18
64 3 16 15 19
65 3 17 15 19
66 3 18 15 19
67 1 19 22 25
68 2 23 22 24
69 3 23 22 25
70 3 24 22 25
71 3 19 22 23
72 3 19 22 24
73 2 58 57 59
74 2 58 57 60
75 2 59 57 60
76 3 58 57 61
77 3 59 57 61
78 3 60 57 61
79 1 57 61 64
80 2 62 61 63
81 3 57 61 62
82 3 57 61 63
83 3 62 61 64
84 3 63 61 64
85 1 61 64 67
86 2 65 64 66
87 3 65 64 67
88 3 66 64 67
89 3 61 64 65
90 3 61 64 66
91 2 68 67 69
92 2 68 67 70
93 2 69 67 70
94 3 64 67 68
95 3 64 67 69
96 3 64 67 70
97 2 100 99 101
98 2 100 99 102
99 2 101 99 102
100 3 100 99 103
101 3 101 99 103
102 3 102 99 103
103 1 103 106 109
104 2 107 106 108
105 3 107 106 109
106 3 108 106 109
107 3 103 106 107
108 3 103 106 108
109 2 142 141 143
110 2 142 141 144
111 2 143 141 144
112 3 142 141 145
113 3 143 141 145
114 3 144 141 145
115 1 141 145 148
116 2 146 145 147
117 3 141 145 146
118 3 141 145 147
119 3 146 145 148
120 3 147 145 148
121 1 145 148 151
122 2 149 148 150
123 3 149 148 151
124 3 150 148 151
125 3 145 148 149
126 3 145 148 150
127 2 152 151 153
128 2 152 151 154
129 2 153 151 154
130 3 148 151 152
131 3 148 151 153
132 3 148 151 154
133 2 30 29 31
134 2 30 29 32
135 2 31 29 32
136 3 30 29 33
137 3 31 29 33
138 3 32 29 33
139 1 33 36 39
140 2 37 36 38
141 3 37 36 39
142 3 38 36 39
143 3 33 36 37
144 3 33 36 38
145 2 72 71 73
146 2 72 71 74
147 2 73 71 74
148 3 72 71 75
149 3 73 71 75
150 3 74 71 75
151 1 71 75 78
152 2 76 75 77
153 3 71 75 76
154 3 71 75 77
155 3 76 75 78
156 3 77 75 78
157 1 75 78 81
158 2 79 78 80
159 3 79 78 81
160 3 80 78 81
161 3 75 78 79
162 3 75 78 80
163 2 114 113 115
164 2 114 113 116
165 2 115 113 116
166 3 114 113 117
167 3 115 113 117
168 3 116 113 117
169 1 117 120 123
170 2 121 120 122
171 3 121 120 123
172 3 122 120 123
173 3 117 120 121
174 3 117 120 122
175 2 156 155 157
176 2 156 155 158
177 2 157 155 158
178 3 156 155 159
179 3 157 155 159
180 3 158 155 159
181 1 155 159 162
182 2 160 159 161
183 3 155 159 160
184 3 155 159 161
185 3 160 159 162
186 3 161 159 162
187 1 159 162 165
188 2 163 162 164
189 3 163 162 165
190 3 164 162 165
191 3 159 162 163
192 3 159 162 164
193 1 29 33 36
194 2 34 33 35
195 3 29 33 34
196 3 29 33 35
197 3 34 33 36
198 3 35 33 36
199 1 113 117 120
200 2 118 117 119
201 3 113 117 118
202 3 113 117 119
203 3 118 117 120
204 3 119 117 120
205 1 1 5 8
206 2 6 5 7
207 3 1 5 6
208 3 1 5 7
209 3 6 5 8
210 3 7 5 8
211 2 12 11 13
212 2 12 11 14
213 2 13 11 14
214 3 8 11 12
215 3 8 11 13
216 3 8 11 14
217 1 85 89 92
218 2 90 89 91
219 3 85 89 90
220 3 85 89 91
221 3 90 89 92
222 3 91 89 92
223 2 96 95 97
224 2 96 95 98
225 2 97 95 98
226 3 92 95 96
227 3 92 95 97
228 3 92 95 98
229 1 15 19 22
230 2 20 19 21
231 3 15 19 20
232 3 15 19 21
233 3 20 19 22
234 3 21 19 22
235 2 26 25 27
236 2 26 25 28
237 2 27 25 28
238 3 22 25 26
239 3 22 25 27
240 3 22 25 28
241 1 99 103 106
242 2 104 103 105
243 3 99 103 104
244 3 99 103 105
245 3 104 103 106
246 3 105 103 106
247 2 110 109 111
248 2 110 109 112
249 2 111 109 112
250 3 106 109 110
251 3 106 109 111
252 3 106 109 112
253 2 124 123 125
254 2 124 123 126
255 2 125 123 126
256 3 120 123 124
257 3 120 123 125
258 3 120 123 126
259 2 40 39 41
260 2 40 39 42
261 2 41 39 42
262 3 36 39 40
263 3 36 39 41
264 3 36 39 42
265 2 2 1 3
266 2 2 1 4
267 2 3 1 4
268 3 2 1 5
269 3 3 1 5
270 3 4 1 5
271 2 44 43 45
272 2 44 43 46
273 2 45 43 46
274 3 44 43 47
275 3 45 43 47
276 3 46 43 47
277 2 86 85 87
278 2 86 85 88
279 2 87 85 88
280 3 86 85 89
281 3 87 85 89
282 3 88 85 89
283 2 128 127 129
284 2 128 127 130
285 2 129 127 130
286 3 128 127 131
287 3 129 127 131
288 3 130 127 131

Dihedrals

1 2 5 8 11 12
2 2 5 8 11 13
3 2 5 8 11 14
4 3 9 8 11 12
5 3 10 8 11 12
6 3 9 8 11 13
7 3 10 8 11 13
8 3 9 8 11 14
9 3 10 8 11 14
10 1 43 47 50 53
11 2 43 47 50 51
12 2 43 47 50 52
13 2 48 47 50 53
14 2 49 47 50 53
15 3 48 47 50 51
16 3 48 47 50 52
17 3 49 47 50 51
18 3 49 47 50 52
19 2 47 50 53 54
20 2 47 50 53 55
21 2 47 50 53 56
22 3 51 50 53 54
23 3 52 50 53 54
24 3 51 50 53 55
25 3 52 50 53 55
26 3 51 50 53 56
27 3 52 50 53 56
28 2 89 92 95 96
29 2 89 92 95 97
30 2 89 92 95 98
31 3 93 92 95 96
32 3 94 92 95 96
33 3 93 92 95 97
34 3 94 92 95 97
35 3 93 92 95 98
36 3 94 92 95 98
37 1 127 131 134 137
38 2 127 131 134 135
39 2 127 131 134 136
40 2 132 131 134 137
41 2 133 131 134 137
42 3 132 131 134 135
43 3 132 131 134 136
44 3 133 131 134 135
45 3 133 131 134 136
46 2 131 134 137 138
47 2 131 134 137 139
48 2 131 134 137 140
49 3 135 134 137 138
50 3 136 134 137 138
51 3 135 134 137 139
52 3 136 134 137 139
53 3 135 134 137 140
54 3 136 134 137 140
55 2 16 15 19 22
56 2 17 15 19 22
57 2 18 15 19 22
58 3 16 15 19 20
59 3 16 15 19 21
60 3 17 15 19 20
61 3 17 15 19 21
62 3 18 15 19 20
63 3 18 15 19 21
64 2 19 22 25 26
65 2 19 22 25 27
66 2 19 22 25 28
67 3 23 22 25 26
68 3 24 22 25 26
69 3 23 22 25 27
70 3 24 22 25 27
71 3 23 22 25 28
72 3 24 22 25 28
73 2 58 57 61 64
74 2 59 57 61 64
75 2 60 57 61 64
76 3 58 57 61 62
77 3 58 57 61 63
78 3 59 57 61 62
79 3 59 57 61 63
80 3 60 57 61 62
81 3 60 57 61 63
82 1 57 61 64 67
83 2 57 61 64 65
84 2 57 61 64 66
85 2 62 61 64 67
86 2 63 61 64 67
87 3 62 61 64 65
88 3 62 61 64 66
89 3 63 61 64 65
90 3 63 61 64 66
91 2 61 64 67 68
92 2 61 64 67 69
93 2 61 64 67 70
94 3 65 64 67 68
95 3 66 64 67 68
96 3 65 64 67 69
97 3 66 64 67 69
98 3 65 64 67 70
99 3 66 64 67 70
100 2 100 99 103 106
101 2 101 99 103 106
102 2 102 99 103 106
103 3 100 99 103 104
104 3 100 99 103 105
105 3 101 99 103 104
106 3 101 99 103 105
107 3 102 99 103 104
108 3 102 99 103 105
109 2 103 106 109 110
110 2 103 106 109 111
111 2 103 106 109 112
112 3 107 106 109 110
113 3 108 106 109 110
114 3 107 106 109 111
115 3 108 106 109 111
116 3 107 106 109 112
117 3 108 106 109 112
118 2 142 141 145 148
119 2 143 141 145 148
120 2 144 141 145 148
121 3 142 141 145 146
122 3 142 141 145 147
123 3 143 141 145 146
124 3 143 141 145 147
125 3 144 141 145 146
126 3 144 141 145 147
127 1 141 145 148 151
128 2 141 145 148 149
129 2 141 145 148 150
130 2 146 145 148 151
131 2 147 145 148 151
132 3 146 145 148 149
133 3 146 145 148 150
134 3 147 145 148 149
135 3 147 145 148 150
136 2 145 148 151 152
137 2 145 148 151 153
138 2 145 148 151 154
139 3 149 148 151 152
140 3 150 148 151 152
141 3 149 148 151 153
142 3 150 148 151 153
143 3 149 148 151 154
144 3 150 148 151 154
145 2 30 29 33 36
146 2 31 29 33 36
147 2 32 29 33 36
148 3 30 29 33 34
149 3 30 29 33 35
150 3 31 29 33 34
151 3 31 29 33 35
152 3 32 29 33 34
153 3 32 29 33 35
154 2 33 36 39 40
155 2 33 36 39 41
156 2 33 36 39 42
157 3 37 36 39 40
158 3 38 36 39 40
159 3 37 36 39 41
160 3 38 36 39 41
161 3 37 36 39 42
162 3 38 36 39 42
163 2 72 71 75 78
164 2 73 71 75 78
165 2 74 71 75 78
166 3 72 71 75 76
167 3 72 71 75 77
168 3 73 71 75 76
169 3 73 71 75 77
170 3 74 71 75 76
171 3 74 71 75 77
172 1 71 75 78 81
173 2 71 75 78 79
174 2 71 75 78 80
175 2 76 75 78 81
176 2 77 75 78 81
177 3 76 75 78 79
178 3 76 75 78 80
179 3 77 75 78 79
180 3 77 75 78 80
181 2 75 78 81 82
182 2 75 78 81 83
183 2 75 78 81 84
184 3 79 78 81 82
185 3 80 78 81 82
186 3 79 78 81 83
187 3 80 78 81 83
188 3 79 78 81 84
189 3 80 78 81 84
190 2 114 113 117 120
191 2 115 113 117 120
192 2 116 113 117 120
193 3 114 113 117 118
194 3 114 113 117 119
195 3 115 113 117 118
196 3 115 113 117 119
197 3 116 113 117 118
198 3 116 113 117 119
199 2 117 120 123 124
200 2 117 120 123 125
201 2 117 120 123 126
202 3 121 120 123 124
203 3 122 120 123 124
204 3 121 120 123 125
205 3 122 120 123 125
206 3 121 120 123 126
207 3 122 120 123 126
208 2 156 155 159 162
209 2 157 155 159 162
210 2 158 155 159 162
211 3 156 155 159 160
212 3 156 155 159 161
213 3 157 155 159 160
214 3 157 155 159 161
215 3 158 155 159 160
216 3 158 155 159 161
217 1 155 159 162 165
218 2 155 159 162 163
219 2 155 159 162 164
220 2 160 159 162 165
221 2 161 159 162 165
222 3 160 159 162 163
223 3 160 159 162 164
224 3 161 159 162 163
225 3 161 159 162 164
226 2 159 162 165 166
227 2 159 162 165 167
228 2 159 162 165 168
229 3 163 162 165 166
230 3 164 162 165 166
231 3 163 162 165 167
232 3 164 162 165 167
233 3 163 162 165 168
234 3 164 162 165 168
235 1 29 33 36 39
236 2 29 33 36 37
237 2 29 33 36 38
238 2 34 33 36 39
239 2 35 33 36 39
240 3 34 33 36 37
241 3 34 33 36 38
242 3 35 33 36 37
243 3 35 33 36 38
244 1 113 117 120 123
245 2 113 117 120 121
246 2 113 117 120 122
247 2 118 117 120 123
248 2 119 117 120 123
249 3 118 117 120 121
250 3 118 117 120 122
251 3 119 117 120 121
252 3 119 117 120 122
253 1 1 5 8 11
254 2 1 5 8 9
255 2 1 5 8 10
256 2 6 5 8 11
257 2 7 5 8 11
258 3 6 5 8 9
259 3 6 5 8 10
260 3 7 5 8 9
261 3 7 5 8 10
262 1 85 89 92 95
263 2 85 89 92 93
264 2 85 89 92 94
265 2 90 89 92 95
266 2 91 89 92 95
267 3 90 89 92 93
268 3 90 89 92 94
269 3 91 89 92 93
270 3 91 89 92 94
271 1 15 19 22 25
272 2 15 19 22 23
273 2 15 19 22 24
274 2 20 19 22 25
275 2 21 19 22 25
276 3 20 19 22 23
277 3 20 19 22 24
278 3 21 19 22 23
279 3 21 19 22 24
280 1 99 103 106 109
281 2 99 103 106 107
282 2 99 103 106 108
283 2 104 103 106 109
284 2 105 103 106 109
285 3 104 103 106 107
286 3 104 103 106 108
287 3 105 103 106 107
288 3 105 103 106 108
289 2 2 1 5 8
290 2 3 1 5 8
291 2 4 1 5 8
292 3 2 1 5 6
293 3 2 1 5 7
294 3 3 1 5 6
295 3 3 1 5 7
296 3 4 1 5 6
297 3 4 1 5 7
298 2 44 43 47 50
299 2 45 43 47 50
300 2 46 43 47 50
301 3 44 43 47 48
302 3 44 43 47 49
303 3 45 43 47 48
304 3 45 43 47 49
305 3 46 43 47 48
306 3 46 43 47 49
307 2 86 85 89 92
308 2 87 85 89 92
309 2 88 85 89 92
310 3 86 85 89 90
311 3 86 85 89 91
312 3 87 85 89 90
313 3 87 85 89 91
314 3 88 85 89 90
315 3 88 85 89 91
316 2 128 127 131 134
317 2 129 127 131 134
318 2 130 127 131 134
319 3 128 127 131 132
320 3 128 127 131 133
321 3 129 127 131 132
322 3 129 127 131 133
323 3 130 127 131 132
324 3 130 127 131 133
