ITEM: TIMESTEP
0
ITEM: NUMBER OF ATOMS
168
ITEM: BOX BOUNDS pp pp pp
0.0000000000000000e+00 6.2399999999999999e+01
0.0000000000000000e+00 6.2399999999999999e+01
0.0000000000000000e+00 6.2399999999999999e+01
ITEM: ATOMS id mol type x y z ix iy iz
1 1 1 0 0.443116 0 0 0 0
2 1 3 0 1.07416 0.892431 0 0 0
8 1 2 2.50664 0.443116 0 0 0 0
9 1 3 2.50664 1.07416 0.892431 0 0 0
14 1 3 4.6524 0.187928 0 0 0 0
43 4 1 0 5.64312 0 0 0 0
44 4 3 0 6.27416 0.892431 0 0 0
47 4 2 1.25332 4.75688 5.42661e-17 0 0 0
49 4 3 1.25332 4.12584 0.892431 0 0 0
50 4 2 2.50664 5.64312 0 0 0 0
51 4 3 2.50664 6.27416 0.892431 0 0 0
53 4 1 3.75997 4.75688 0 0 0 0
54 4 3 3.75997 4.12584 0.892431 0 0 0
56 4 3 4.6524 5.38793 0 0 0 0
85 7 1 0 0.443116 5.2 0 0 0
86 7 3 0 1.07416 6.09243 0 0 0
87 7 3 0 1.07416 4.30757 0 0 0
92 7 2 2.50664 0.443116 5.2 0 0 0
93 7 3 2.50664 1.07416 6.09243 0 0 0
94 7 3 2.50664 1.07416 4.30757 0 0 0
98 7 3 4.6524 0.187928 5.2 0 0 0
127 10 1 0 5.64312 5.2 0 0 0
128 10 3 0 6.27416 6.09243 0 0 0
129 10 3 0 6.27416 4.30757 0 0 0
131 10 2 1.25332 4.75688 5.2 0 0 0
132 10 3 1.25332 4.12584 4.30757 0 0 0
133 10 3 1.25332 4.12584 6.09243 0 0 0
134 10 2 2.50664 5.64312 5.2 0 0 0
135 10 3 2.50664 6.27416 6.09243 0 0 0
136 10 3 2.50664 6.27416 4.30757 0 0 0
137 10 1 3.75997 4.75688 5.2 0 0 0
138 10 3 3.75997 4.12584 6.09243 0 0 0
139 10 3 3.75997 4.12584 4.30757 0 0 0
140 10 3 4.6524 5.38793 5.2 0 0 0
15 2 1 10.4 0.443116 0 0 0 0
16 2 3 10.4 1.07416 0.892431 0 0 0
22 2 2 12.9066 0.443116 0 0 0 0
23 2 3 12.9066 1.07416 0.892431 0 0 0
28 2 3 15.0524 0.187928 0 0 0 0
57 5 1 10.4 5.64312 0 0 0 0
58 5 3 10.4 6.27416 0.892431 0 0 0
60 5 3 9.50757 5.01207 0 0 0 0
61 5 2 11.6533 4.75688 5.42661e-17 0 0 0
63 5 3 11.6533 4.12584 0.892431 0 0 0
64 5 2 12.9066 5.64312 0 0 0 0
65 5 3 12.9066 6.27416 0.892431 0 0 0
67 5 1 14.16 4.75688 0 0 0 0
68 5 3 14.16 4.12584 0.892431 0 0 0
70 5 3 15.0524 5.38793 0 0 0 0
99 8 1 10.4 0.443116 5.2 0 0 0
100 8 3 10.4 1.07416 6.09243 0 0 0
101 8 3 10.4 1.07416 4.30757 0 0 0
106 8 2 12.9066 0.443116 5.2 0 0 0
107 8 3 12.9066 1.07416 6.09243 0 0 0
108 8 3 12.9066 1.07416 4.30757 0 0 0
112 8 3 15.0524 0.187928 5.2 0 0 0
141 11 1 10.4 5.64312 5.2 0 0 0
142 11 3 10.4 6.27416 6.09243 0 0 0
143 11 3 10.4 6.27416 4.30757 0 0 0
144 11 3 9.50757 5.01207 5.2 0 0 0
145 11 2 11.6533 4.75688 5.2 0 0 0
146 11 3 11.6533 4.12584 4.30757 0 0 0
147 11 3 11.6533 4.12584 6.09243 0 0 0
148 11 2 12.9066 5.64312 5.2 0 0 0
149 11 3 12.9066 6.27416 6.09243 0 0 0
150 11 3 12.9066 6.27416 4.30757 0 0 0
151 11 1 14.16 4.75688 5.2 0 0 0
152 11 3 14.16 4.12584 6.09243 0 0 0
153 11 3 14.16 4.12584 4.30757 0 0 0
154 11 3 15.0524 5.38793 5.2 0 0 0
29 3 1 20.8 0.443116 0 0 0 0
30 3 3 20.8 1.07416 0.892431 0 0 0
36 3 2 23.3066 0.443116 0 0 0 0
37 3 3 23.3066 1.07416 0.892431 0 0 0
71 6 1 20.8 5.64312 0 0 0 0
72 6 3 20.8 6.27416 0.892431 0 0 0
74 6 3 19.9076 5.01207 0 0 0 0
75 6 2 22.0533 4.75688 5.42661e-17 0 0 0
77 6 3 22.0533 4.12584 0.892431 0 0 0
78 6 2 23.3066 5.64312 0 0 0 0
79 6 3 23.3066 6.27416 0.892431 0 0 0
113 9 1 20.8 0.443116 5.2 0 0 0
114 9 3 20.8 1.07416 6.09243 0 0 0
115 9 3 20.8 1.07416 4.30757 0 0 0
120 9 2 23.3066 0.443116 5.2 0 0 0
121 9 3 23.3066 1.07416 6.09243 0 0 0
122 9 3 23.3066 1.07416 4.30757 0 0 0
155 12 1 20.8 5.64312 5.2 0 0 0
156 12 3 20.8 6.27416 6.09243 0 0 0
157 12 3 20.8 6.27416 4.30757 0 0 0
158 12 3 19.9076 5.01207 5.2 0 0 0
159 12 2 22.0533 4.75688 5.2 0 0 0
160 12 3 22.0533 4.12584 4.30757 0 0 0
161 12 3 22.0533 4.12584 6.09243 0 0 0
162 12 2 23.3066 5.64312 5.2 0 0 0
163 12 3 23.3066 6.27416 6.09243 0 0 0
164 12 3 23.3066 6.27416 4.30757 0 0 0
42 3 3 25.4524 0.187928 0 0 0 0
81 6 1 24.56 4.75688 0 0 0 0
82 6 3 24.56 4.12584 0.892431 0 0 0
84 6 3 25.4524 5.38793 0 0 0 0
126 9 3 25.4524 0.187928 5.2 0 0 0
165 12 1 24.56 4.75688 5.2 0 0 0
166 12 3 24.56 4.12584 6.09243 0 0 0
167 12 3 24.56 4.12584 4.30757 0 0 0
168 12 3 25.4524 5.38793 5.2 0 0 0
3 1 3 0 1.07416 61.5076 0 0 -1
10 1 3 2.50664 1.07416 61.5076 0 0 -1
45 4 3 0 6.27416 61.5076 0 0 -1
48 4 3 1.25332 4.12584 61.5076 0 0 -1
52 4 3 2.50664 6.27416 61.5076 0 0 -1
55 4 3 3.75997 4.12584 61.5076 0 0 -1
17 2 3 10.4 1.07416 61.5076 0 0 -1
24 2 3 12.9066 1.07416 61.5076 0 0 -1
59 5 3 10.4 6.27416 61.5076 0 0 -1
62 5 3 11.6533 4.12584 61.5076 0 0 -1
66 5 3 12.9066 6.27416 61.5076 0 0 -1
69 5 3 14.16 4.12584 61.5076 0 0 -1
31 3 3 20.8 1.07416 61.5076 0 0 -1
38 3 3 23.3066 1.07416 61.5076 0 0 -1
73 6 3 20.8 6.27416 61.5076 0 0 -1
76 6 3 22.0533 4.12584 61.5076 0 0 -1
80 6 3 23.3066 6.27416 61.5076 0 0 -1
83 6 3 24.56 4.12584 61.5076 0 0 -1
5 1 2 1.25332 61.9569 5.42661e-17 0 -1 0
7 1 3 1.25332 61.3258 0.892431 0 -1 0
11 1 1 3.75997 61.9569 0 0 -1 0
12 1 3 3.75997 61.3258 0.892431 0 -1 0
89 7 2 1.25332 61.9569 5.2 0 -1 0
90 7 3 1.25332 61.3258 4.30757 0 -1 0
91 7 3 1.25332 61.3258 6.09243 0 -1 0
95 7 1 3.75997 61.9569 5.2 0 -1 0
96 7 3 3.75997 61.3258 6.09243 0 -1 0
97 7 3 3.75997 61.3258 4.30757 0 -1 0
18 2 3 9.50757 62.2121 0 0 -1 0
19 2 2 11.6533 61.9569 5.42661e-17 0 -1 0
21 2 3 11.6533 61.3258 0.892431 0 -1 0
25 2 1 14.16 61.9569 0 0 -1 0
26 2 3 14.16 61.3258 0.892431 0 -1 0
102 8 3 9.50757 62.2121 5.2 0 -1 0
103 8 2 11.6533 61.9569 5.2 0 -1 0
104 8 3 11.6533 61.3258 4.30757 0 -1 0
105 8 3 11.6533 61.3258 6.09243 0 -1 0
109 8 1 14.16 61.9569 5.2 0 -1 0
110 8 3 14.16 61.3258 6.09243 0 -1 0
111 8 3 14.16 61.3258 4.30757 0 -1 0
32 3 3 19.9076 62.2121 0 0 -1 0
33 3 2 22.0533 61.9569 5.42661e-17 0 -1 0
35 3 3 22.0533 61.3258 0.892431 0 -1 0
116 9 3 19.9076 62.2121 5.2 0 -1 0
117 9 2 22.0533 61.9569 5.2 0 -1 0
118 9 3 22.0533 61.3258 4.30757 0 -1 0
119 9 3 22.0533 61.3258 6.09243 0 -1 0
39 3 1 24.56 61.9569 0 0 -1 0
40 3 3 24.56 61.3258 0.892431 0 -1 0
123 9 1 24.56 61.9569 5.2 0 -1 0
124 9 3 24.56 61.3258 6.09243 0 -1 0
125 9 3 24.56 61.3258 4.30757 0 -1 0
6 1 3 1.25332 61.3258 61.5076 0 -1 -1
13 1 3 3.75997 61.3258 61.5076 0 -1 -1
20 2 3 11.6533 61.3258 61.5076 0 -1 -1
27 2 3 14.16 61.3258 61.5076 0 -1 -1
34 3 3 22.0533 61.3258 61.5076 0 -1 -1
41 3 3 24.56 61.3258 61.5076 0 -1 -1
46 4 3 61.5076 5.01207 0 -1 0 0
130 10 3 61.5076 5.01207 5.2 -1 0 0
4 1 3 61.5076 62.2121 0 -1 -1 0
88 7 3 61.5076 62.2121 5.2 -1 -1 0
ITEM: TIMESTEP
50
ITEM: NUMBER OF ATOMS
168
ITEM: BOX BOUNDS pp pp pp
0.0000000000000000e+00 6.2399999999999999e+01
0.0000000000000000e+00 6.2399999999999999e+01
0.0000000000000000e+00 6.2399999999999999e+01
ITEM: ATOMS id mol type x y z ix iy iz
1 1 1 -0.0128513 0.891317 0.303987 0 0 0
2 1 3 -0.0488661 1.52872 1.18714 0 0 0
8 1 2 2.53199 0.793141 0.315492 0 0 0
9 1 3 2.57352 1.43159 1.19943 0 0 0
14 1 3 4.68404 0.486694 0.25576 0 0 0
43 4 1 -0.0524018 5.27537 0.300106 0 0 0
44 4 3 -0.0983237 5.9152 1.18116 0 0 0
47 4 2 1.1937 4.3852 0.324362 0 0 0
49 4 3 1.16204 3.74216 1.20541 0 0 0
50 4 2 2.49343 5.19825 0.324596 0 0 0
51 4 3 2.52443 5.84217 1.20508 0 0 0
53 4 1 3.73837 4.3062 0.303103 0 0 0
54 4 3 3.77677 3.66012 1.17981 0 0 0
56 4 3 4.64826 4.90652 0.293503 0 0 0
85 7 1 -0.0128489 0.891318 4.896 0 0 0
86 7 3 -0.0224144 1.53451 5.77597 0 0 0
87 7 3 -0.0488533 1.52873 4.01285 0 0 0
92 7 2 2.532 0.793142 4.88452 0 0 0
93 7 3 2.54989 1.45917 5.74889 0 0 0
94 7 3 2.57352 1.43159 4.00059 0 0 0
98 7 3 4.68404 0.486694 4.94426 0 0 0
127 10 1 -0.0523995 5.27537 4.89988 0 0 0
128 10 3 -0.0616296 5.91669 5.78147 0 0 0
129 10 3 -0.098312 5.9152 4.01883 0 0 0
131 10 2 1.19371 4.3852 4.87564 0 0 0
132 10 3 1.16205 3.74215 3.9946 0 0 0
133 10 3 1.1769 3.72349 5.74336 0 0 0
134 10 2 2.49343 5.19825 4.87541 0 0 0
135 10 3 2.51222 5.86002 5.74341 0 0 0
136 10 3 2.52444 5.84217 3.99492 0 0 0
137 10 1 3.73837 4.3062 4.89691 0 0 0
138 10 3 3.75341 3.67171 5.78315 0 0 0
139 10 3 3.77678 3.66012 4.0202 0 0 0
140 10 3 4.64827 4.90652 4.90651 0 0 0
15 2 1 10.3954 0.894733 0.297619 0 0 0
16 2 3 10.3649 1.53714 1.17733 0 0 0
22 2 2 12.94 0.795287 0.306308 0 0 0
23 2 3 12.9802 1.43731 1.1877 0 0 0
28 2 3 15.092 0.488443 0.251801 0 0 0
57 5 1 10.3818 5.30576 0.276979 0 0 0
58 5 3 10.3377 5.94552 1.15816 0 0 0
60 5 3 9.46797 4.71156 0.251803 0 0 0
61 5 2 11.62 4.40471 0.306314 0 0 0
63 5 3 11.5797 3.7627 1.18772 0 0 0
64 5 2 12.9265 5.20702 0.310697 0 0 0
65 5 3 12.9587 5.8531 1.18955 0 0 0
67 5 1 14.1646 4.30527 0.297623 0 0 0
68 5 3 14.1951 3.66287 1.17734 0 0 0
70 5 3 15.0791 4.89864 0.288746 0 0 0
99 8 1 10.3954 0.894734 4.90238 0 0 0
100 8 3 10.3819 1.53317 5.78581 0 0 0
101 8 3 10.3649 1.53714 4.02267 0 0 0
106 8 2 12.94 0.795288 4.8937 0 0 0
107 8 3 12.9594 1.45786 5.76074 0 0 0
108 8 3 12.9802 1.43732 4.01231 0 0 0
112 8 3 15.092 0.488444 4.9482 0 0 0
141 11 1 10.3818 5.30576 4.92302 0 0 0
142 11 3 10.382 5.94778 5.80412 0 0 0
143 11 3 10.3377 5.94551 4.04184 0 0 0
144 11 3 9.46797 4.71156 4.9482 0 0 0
145 11 2 11.62 4.40471 4.89369 0 0 0
146 11 3 11.5797 3.76269 4.01229 0 0 0
147 11 3 11.6006 3.74213 5.76072 0 0 0
148 11 2 12.9265 5.20701 4.8893 0 0 0
149 11 3 12.9548 5.86642 5.75885 0 0 0
150 11 3 12.9587 5.8531 4.01045 0 0 0
151 11 1 14.1646 4.30527 4.90238 0 0 0
152 11 3 14.1781 3.66682 5.7858 0 0 0
153 11 3 14.1951 3.66286 4.02266 0 0 0
154 11 3 15.0791 4.89864 4.91125 0 0 0
29 3 1 20.8216 0.893815 0.303101 0 0 0
30 3 3 20.7832 1.5399 1.17981 0 0 0
36 3 2 23.3663 0.814794 0.324357 0 0 0
37 3 3 23.3979 1.45784 1.2054 0 0 0
71 6 1 20.7897 5.30759 0.279831 0 0 0
72 6 3 20.7441 5.95157 1.15783 0 0 0
74 6 3 19.8759 4.71333 0.255763 0 0 0
75 6 2 22.028 4.40687 0.315497 0 0 0
77 6 3 21.9864 3.76843 1.19944 0 0 0
78 6 2 23.3342 5.20959 0.318548 0 0 0
79 6 3 23.3671 5.85596 1.19719 0 0 0
113 9 1 20.8216 0.893815 4.89691 0 0 0
114 9 3 20.8066 1.5283 5.78315 0 0 0
115 9 3 20.7832 1.5399 4.0202 0 0 0
120 9 2 23.3663 0.814795 4.87564 0 0 0
121 9 3 23.3831 1.4765 5.74337 0 0 0
122 9 3 23.3979 1.45785 3.9946 0 0 0
155 12 1 20.7897 5.30759 4.92018 0 0 0
156 12 3 20.7915 5.94541 5.80429 0 0 0
157 12 3 20.7441 5.95156 4.04218 0 0 0
158 12 3 19.8759 4.71333 4.94426 0 0 0
159 12 2 22.028 4.40686 4.88451 0 0 0
160 12 3 21.9864 3.76842 4.00058 0 0 0
161 12 3 22.0101 3.74082 5.74888 0 0 0
162 12 2 23.3342 5.20959 4.88145 0 0 0
163 12 3 23.3612 5.86865 5.75125 0 0 0
164 12 3 23.3671 5.85596 4.0028 0 0 0
42 3 3 25.5209 0.527089 0.279322 0 0 0
81 6 1 24.5728 4.30867 0.303988 0 0 0
82 6 3 24.6088 3.67127 1.18714 0 0 0
84 6 3 25.4867 4.90274 0.28665 0 0 0
126 9 3 25.5209 0.52709 4.92065 0 0 0
165 12 1 24.5728 4.30867 4.896 0 0 0
166 12 3 24.5824 3.66547 5.77597 0 0 0
167 12 3 24.6088 3.67127 4.01285 0 0 0
168 12 3 25.4867 4.90274 4.91332 0 0 0
3 1 3 -0.0224061 1.53452 61.824 0 0 -1
10 1 3 2.54989 1.45918 61.8511 0 0 -1
45 4 3 -0.061623 5.91669 61.8185 0 0 -1
48 4 3 1.1769 3.72349 61.8566 0 0 -1
52 4 3 2.51222 5.86002 61.8566 0 0 -1
55 4 3 3.75341 3.67171 61.8169 0 0 -1
17 2 3 10.3819 1.53318 61.8142 0 0 -1
24 2 3 12.9594 1.45787 61.8393 0 0 -1
59 5 3 10.382 5.94777 61.7959 0 0 -1
62 5 3 11.6006 3.74212 61.8393 0 0 -1
66 5 3 12.9548 5.86642 61.8412 0 0 -1
69 5 3 14.1781 3.66681 61.8142 0 0 -1
31 3 3 20.8066 1.5283 61.8169 0 0 -1
38 3 3 23.3831 1.4765 61.8566 0 0 -1
73 6 3 20.7915 5.94541 61.7957 0 0 -1
76 6 3 22.0101 3.74082 61.8511 0 0 -1
80 6 3 23.3612 5.86864 61.8487 0 0 -1
83 6 3 24.5824 3.66546 61.824 0 0 -1
5 1 2 1.22578 62.3904 0.318551 0 -1 0
7 1 3 1.19288 61.744 1.1972 0 -1 0
11 1 1 3.77029 62.2924 0.279832 0 -1 0
12 1 3 3.81586 61.6485 1.15783 0 -1 0
89 7 2 1.22579 62.3904 4.88144 0 -1 0
90 7 3 1.19289 61.744 4.00279 0 -1 0
91 7 3 1.19879 61.7313 5.75124 0 -1 0
95 7 1 3.77029 62.2924 4.92018 0 -1 0
96 7 3 3.76846 61.6546 5.80429 0 -1 0
97 7 3 3.81587 61.6485 4.04217 0 -1 0
18 2 3 9.48089 62.7014 0.288749 0 -1 0
19 2 2 11.6335 62.393 0.3107 0 -1 0
21 2 3 11.6013 61.7469 1.18956 0 -1 0
25 2 1 14.1782 62.2942 0.276982 0 -1 0
26 2 3 14.2223 61.6545 1.15817 0 -1 0
102 8 3 9.48089 62.7014 4.91124 0 -1 0
103 8 2 11.6335 62.393 4.8893 0 -1 0
104 8 3 11.6013 61.7469 4.01044 0 -1 0
105 8 3 11.6052 61.7336 5.75884 0 -1 0
109 8 1 14.1782 62.2942 4.92302 0 -1 0
110 8 3 14.1779 61.6522 5.80411 0 -1 0
111 8 3 14.2223 61.6545 4.04183 0 -1 0
32 3 3 19.9117 62.6935 0.293509 0 -1 0
33 3 2 22.0665 62.4018 0.3246 0 -1 0
35 3 3 22.0355 61.7578 1.20509 0 -1 0
116 9 3 19.9117 62.6935 4.90651 0 -1 0
117 9 2 22.0665 62.4018 4.87541 0 -1 0
118 9 3 22.0355 61.7578 3.99491 0 -1 0
119 9 3 22.0477 61.74 5.7434 0 -1 0
39 3 1 24.6124 62.3246 0.300106 0 -1 0
40 3 3 24.6583 61.6848 1.18116 0 -1 0
123 9 1 24.6124 62.3246 4.89988 0 -1 0
124 9 3 24.6216 61.6833 5.78146 0 -1 0
125 9 3 24.6583 61.6848 4.01882 0 -1 0
6 1 3 1.1988 61.7313 61.8487 0 -1 -1
13 1 3 3.76847 61.6546 61.7957 0 -1 -1
20 2 3 11.6052 61.7336 61.8412 0 -1 -1
27 2 3 14.1779 61.6522 61.7959 0 -1 -1
34 3 3 22.0477 61.74 61.8566 0 -1 -1
41 3 3 24.6216 61.6833 61.8185 0 -1 -1
46 4 3 61.4391 4.67288 0.279327 -1 0 0
130 10 3 61.4391 4.67288 4.92065 -1 0 0
4 1 3 61.4733 62.6972 0.286654 -1 -1 0
88 7 3 61.4733 62.6972 4.91332 -1 -1 0
ITEM: TIMESTEP
61
ITEM: NUMBER OF ATOMS
168
ITEM: BOX BOUNDS pp pp pp
0.0000000000000000e+00 6.2399999999999999e+01
0.0000000000000000e+00 6.2399999999999999e+01
0.0000000000000000e+00 6.2399999999999999e+01
ITEM: ATOMS id mol type x y z ix iy iz
1 1 1 -0.0199178 0.88835 0.313667 0 0 0
2 1 3 -0.0537957 1.52918 1.19541 0 0 0
8 1 2 2.53087 0.792044 0.3205 0 0 0
9 1 3 2.57145 1.43294 1.20242 0 0 0
14 1 3 4.68563 0.493601 0.273256 0 0 0
43 4 1 -0.0545682 5.27259 0.309204 0 0 0
44 4 3 -0.0990514 5.91495 1.18941 0 0 0
47 4 2 1.19552 4.38673 0.328805 0 0 0
49 4 3 1.16378 3.74089 1.20755 0 0 0
50 4 2 2.49814 5.1971 0.330645 0 0 0
51 4 3 2.52884 5.84173 1.21029 0 0 0
53 4 1 3.74618 4.30836 0.312896 0 0 0
54 4 3 3.78385 3.66064 1.18946 0 0 0
56 4 3 4.65509 4.91017 0.30746 0 0 0
85 7 1 -0.0199153 0.888351 4.88632 0 0 0
86 7 3 -0.0373756 1.53025 5.76775 0 0 0
87 7 3 -0.0537842 1.52918 4.00458 0 0 0
92 7 2 2.53087 0.792045 4.87951 0 0 0
93 7 3 2.55072 1.45708 5.74377 0 0 0
94 7 3 2.57146 1.43295 3.99759 0 0 0
98 7 3 4.68563 0.493601 4.92677 0 0 0
127 10 1 -0.0545657 5.27259 4.89078 0 0 0
128 10 3 -0.0719883 5.91309 5.77341 0 0 0
129 10 3 -0.0990408 5.91495 4.01057 0 0 0
131 10 2 1.19552 4.38673 4.87119 0 0 0
132 10 3 1.16379 3.74089 3.99245 0 0 0
133 10 3 1.17666 3.72635 5.73908 0 0 0
134 10 2 2.49815 5.1971 4.86936 0 0 0
135 10 3 2.52011 5.85921 5.73607 0 0 0
136 10 3 2.52885 5.84173 3.98971 0 0 0
137 10 1 3.74618 4.30836 4.88712 0 0 0
138 10 3 3.76707 3.67351 5.7736 0 0 0
139 10 3 3.78386 3.66064 4.01056 0 0 0
140 10 3 4.65509 4.91017 4.89256 0 0 0
15 2 1 10.3884 0.893326 0.307159 0 0 0
16 2 3 10.3584 1.53782 1.18639 0 0 0
22 2 2 12.939 0.794745 0.311391 0 0 0
23 2 3 12.9791 1.4394 1.19064 0 0 0
28 2 3 15.0936 0.495071 0.26843 0 0 0
57 5 1 10.3786 5.30174 0.286405 0 0 0
58 5 3 10.3359 5.94476 1.16618 0 0 0
60 5 3 9.46641 4.70493 0.268432 0 0 0
61 5 2 11.621 4.40526 0.311397 0 0 0
63 5 3 11.5808 3.76061 1.19066 0 0 0
64 5 2 12.9303 5.20496 0.31687 0 0 0
65 5 3 12.9625 5.852 1.1947 0 0 0
67 5 1 14.1716 4.30667 0.307163 0 0 0
68 5 3 14.2016 3.66219 1.1864 0 0 0
70 5 3 15.0851 4.90165 0.302687 0 0 0
99 8 1 10.3884 0.893327 4.89284 0 0 0
100 8 3 10.3689 1.53177 5.77677 0 0 0
101 8 3 10.3584 1.53783 4.01362 0 0 0
106 8 2 12.939 0.794746 4.88861 0 0 0
107 8 3 12.9603 1.45608 5.75571 0 0 0
108 8 3 12.9791 1.4394 4.00937 0 0 0
112 8 3 15.0936 0.495071 4.93157 0 0 0
141 11 1 10.3786 5.30174 4.91359 0 0 0
142 11 3 10.3702 5.94227 5.79626 0 0 0
143 11 3 10.3359 5.94475 4.03381 0 0 0
144 11 3 9.46641 4.70493 4.93157 0 0 0
145 11 2 11.621 4.40525 4.88861 0 0 0
146 11 3 11.5808 3.76061 4.00935 0 0 0
147 11 3 11.5997 3.74391 5.7557 0 0 0
148 11 2 12.9303 5.20496 4.88313 0 0 0
149 11 3 12.9613 5.8644 5.75158 0 0 0
150 11 3 12.9625 5.85199 4.00529 0 0 0
151 11 1 14.1716 4.30667 4.89284 0 0 0
152 11 3 14.1911 3.66822 5.77676 0 0 0
153 11 3 14.2016 3.66218 4.01361 0 0 0
154 11 3 15.0851 4.90165 4.89731 0 0 0
29 3 1 20.8138 0.891653 0.312895 0 0 0
30 3 3 20.7761 1.53938 1.18945 0 0 0
36 3 2 23.3645 0.813262 0.3288 0 0 0
37 3 3 23.3962 1.45911 1.20754 0 0 0
71 6 1 20.7862 5.30363 0.289844 0 0 0
72 6 3 20.7423 5.95063 1.16659 0 0 0
74 6 3 19.8743 4.70642 0.273259 0 0 0
75 6 2 22.0291 4.40796 0.320505 0 0 0
77 6 3 21.9885 3.76707 1.20243 0 0 0
78 6 2 23.3377 5.20864 0.323828 0 0 0
79 6 3 23.3703 5.85674 1.20081 0 0 0
113 9 1 20.8138 0.891653 4.88712 0 0 0
114 9 3 20.7929 1.52649 5.77361 0 0 0
115 9 3 20.7761 1.53938 4.01056 0 0 0
120 9 2 23.3644 0.813263 4.8712 0 0 0
121 9 3 23.3833 1.47364 5.73909 0 0 0
122 9 3 23.3962 1.45911 3.99246 0 0 0
155 12 1 20.7862 5.30363 4.91017 0 0 0
156 12 3 20.7788 5.94017 5.79572 0 0 0
157 12 3 20.7423 5.95062 4.03341 0 0 0
158 12 3 19.8743 4.70642 4.92676 0 0 0
159 12 2 22.0291 4.40796 4.8795 0 0 0
160 12 3 21.9885 3.76706 3.99758 0 0 0
161 12 3 22.0092 3.74292 5.74375 0 0 0
162 12 2 23.3377 5.20864 4.87617 0 0 0
163 12 3 23.3672 5.867 5.74546 0 0 0
164 12 3 23.3703 5.85674 3.99918 0 0 0
42 3 3 25.5215 0.532295 0.294927 0 0 0
81 6 1 24.5799 4.31164 0.313668 0 0 0
82 6 3 24.6138 3.67082 1.19541 0 0 0
84 6 3 25.4925 4.90765 0.303551 0 0 0
126 9 3 25.5215 0.532296 4.90505 0 0 0
165 12 1 24.5799 4.31164 4.88632 0 0 0
166 12 3 24.5973 3.66973 5.76775 0 0 0
167 12 3 24.6137 3.67081 4.00458 0 0 0
168 12 3 25.4925 4.90765 4.89642 0 0 0
3 1 3 -0.0373686 1.53025 61.8322 0 0 -1
10 1 3 2.55072 1.45708 61.8562 0 0 -1
45 4 3 -0.0719826 5.91309 61.8266 0 0 -1
48 4 3 1.17667 3.72634 61.8609 0 0 -1
52 4 3 2.52011 5.85921 61.8639 0 0 -1
55 4 3 3.76707 3.67351 61.8264 0 0 -1
17 2 3 10.3689 1.53177 61.8232 0 0 -1
24 2 3 12.9603 1.45609 61.8443 0 0 -1
59 5 3 10.3702 5.94226 61.8037 0 0 -1
62 5 3 11.5997 3.7439 61.8443 0 0 -1
66 5 3 12.9613 5.86439 61.8484 0 0 -1
69 5 3 14.1911 3.66822 61.8232 0 0 -1
31 3 3 20.7929 1.52649 61.8264 0 0 -1
38 3 3 23.3833 1.47364 61.8609 0 0 -1
73 6 3 20.7788 5.94016 61.8043 0 0 -1
76 6 3 22.0092 3.74292 61.8563 0 0 -1
80 6 3 23.3672 5.867 61.8545 0 0 -1
83 6 3 24.5973 3.66973 61.8322 0 0 -1
5 1 2 1.22228 62.3914 0.323831 0 -1 0
7 1 3 1.18967 61.7433 1.20082 0 -1 0
11 1 1 3.77375 62.2964 0.289846 0 -1 0
12 1 3 3.81769 61.6494 1.1666 0 -1 0
89 7 2 1.22228 62.3914 4.87616 0 -1 0
90 7 3 1.18968 61.7433 3.99917 0 -1 0
91 7 3 1.19275 61.733 5.74545 0 -1 0
95 7 1 3.77375 62.2964 4.91017 0 -1 0
96 7 3 3.78112 61.6598 5.79571 0 -1 0
97 7 3 3.8177 61.6494 4.03341 0 -1 0
18 2 3 9.47492 62.6983 0.30269 0 -1 0
19 2 2 11.6297 62.395 0.316873 0 -1 0
21 2 3 11.5975 61.748 1.19471 0 -1 0
25 2 1 14.1814 62.2983 0.286408 0 -1 0
26 2 3 14.224 61.6552 1.16619 0 -1 0
102 8 3 9.47492 62.6983 4.8973 0 -1 0
103 8 2 11.6297 62.395 4.88313 0 -1 0
104 8 3 11.5975 61.748 4.00528 0 -1 0
105 8 3 11.5986 61.7356 5.75157 0 -1 0
109 8 1 14.1814 62.2983 4.91359 0 -1 0
110 8 3 14.1897 61.6577 5.79625 0 -1 0
111 8 3 14.224 61.6553 4.0338 0 -1 0
32 3 3 19.9049 62.6899 0.307466 0 -1 0
33 3 2 22.0618 62.4029 0.330649 0 -1 0
35 3 3 22.0311 61.7583 1.2103 0 -1 0
116 9 3 19.9049 62.6899 4.89255 0 -1 0
117 9 2 22.0618 62.4029 4.86936 0 -1 0
118 9 3 22.0311 61.7583 3.9897 0 -1 0
119 9 3 22.0398 61.7408 5.73606 0 -1 0
39 3 1 24.6145 62.3274 0.309204 0 -1 0
40 3 3 24.659 61.685 1.18942 0 -1 0
123 9 1 24.6145 62.3274 4.89078 0 -1 0
124 9 3 24.6319 61.6869 5.7734 0 -1 0
125 9 3 24.659 61.685 4.01056 0 -1 0
6 1 3 1.19275 61.733 61.8545 0 -1 -1
13 1 3 3.78113 61.6599 61.8043 0 -1 -1
20 2 3 11.5986 61.7356 61.8484 0 -1 -1
27 2 3 14.1897 61.6577 61.8037 0 -1 -1
34 3 3 22.0398 61.7408 61.8639 0 -1 -1
41 3 3 24.6319 61.6869 61.8266 0 -1 -1
46 4 3 61.4385 4.66768 0.294932 -1 0 0
130 10 3 61.4385 4.66768 4.90505 -1 0 0
4 1 3 61.4674 62.6923 0.303555 -1 -1 0
88 7 3 61.4674 62.6923 4.89642 -1 -1 0
