LAMMPS Description

     168  atoms
     156  bonds
     288  angles
     324  dihedrals
     0  impropers

     906  atom types
     379  bond types
     1017  angle types
     800  dihedral types
     6  improper types

  0.0 62.4 xlo xhi
  0.0 62.4 ylo yhi
  0.0 62.4 zlo zhi

Masses

1 18.998  # 1
2 14.027  # 2
3 12.011  # 3
4 15.999  # 4
5 15.999  # 5
6 15.035  # 6
7 1.008  # 7
8 16.043  # 8
9 15.035  # 9
10 15.035  # 10
11 15.035  # 11
12 15.035  # 12
13 14.027  # 13
14 14.027  # 14
15 13.019  # 15
16 13.019  # 16
17 13.019  # 17
18 12.011  # 18
19 12.011  # 19
20 15.999  # 20
21 1.008  # 21
22 15.035  # 22
23 14.027  # 23
24 32.06  # 24
25 32.06  # 25
26 32.06  # 26
27 32.06  # 27
28 1.008  # 28
29 1.008  # 29
30 15.035  # 30
31 14.027  # 31
32 15.035  # 32
33 14.027  # 33
34 15.035  # 34
35 14.027  # 35
36 14.007  # 36
37 12.011  # 37
38 15.035  # 38
39 13.019  # 39
40 12.011  # 40
41 15.999  # 41
42 15.035  # 42
43 14.027  # 43
44 14.027  # 44
45 35.453  # 45
46 12.011  # 46
47 35.453  # 47
48 12.011  # 48
49 35.453  # 49
50 32.06  # 50
51 15.999  # 51
52 15.035  # 52
53 15.999  # 53
54 14.007  # 54
55 12.011  # 55
56 15.035  # 56
57 1.0  # 57
58 4.003  # 58
59 20.179  # 59
60 39.948  # 60
61 83.8  # 61
62 131.3  # 62
63 15.999  # 63
64 1.008  # 64
65 15.999  # 65
66 1.008  # 66
67 1e-30  # 67
68 15.999  # 68
69 1.008  # 69
70 15.999  # 70
71 1.008  # 71
72 1e-30  # 72
73 15.999  # 73
74 1.008  # 74
75 1e-30  # 75
76 15.999  # 76
77 1.008  # 77
78 14.007  # 78
79 1.008  # 79
80 12.011  # 80
81 12.011  # 81
82 12.011  # 82
83 12.011  # 83
84 12.011  # 84
85 1.008  # 85
86 12.011  # 86
87 12.011  # 87
88 12.011  # 88
89 1.008  # 89
90 12.011  # 90
91 1.008  # 91
92 12.011  # 92
93 12.011  # 93
94 12.011  # 94
95 12.011  # 95
96 15.999  # 96
97 1.008  # 97
98 1.008  # 98
99 12.011  # 99
100 12.011  # 100
101 12.011  # 101
102 12.011  # 102
103 12.011  # 103
104 15.999  # 104
105 1.008  # 105
106 18.998  # 106
107 1.008  # 107
108 12.011  # 108
109 15.999  # 109
110 1.008  # 110
111 15.999  # 111
112 1.008  # 112
113 15.999  # 113
114 1.008  # 114
115 12.011  # 115
116 12.011  # 116
117 12.011  # 117
118 1.008  # 118
119 15.999  # 119
120 12.011  # 120
121 15.999  # 121
122 15.999  # 122
123 12.011  # 123
124 12.011  # 124
125 12.011  # 125
126 12.011  # 126
127 1.008  # 127
128 15.999  # 128
129 15.999  # 129
130 1.008  # 130
131 12.011  # 131
132 1.008  # 132
133 12.011  # 133
134 1.008  # 134
135 12.011  # 135
136 1.008  # 136
137 12.011  # 137
138 1.008  # 138
139 12.011  # 139
140 12.011  # 140
141 12.011  # 141
142 32.06  # 142
143 32.06  # 143
144 32.06  # 144
145 32.06  # 145
146 1.008  # 146
147 1.008  # 147
148 12.011  # 148
149 12.011  # 149
150 12.011  # 150
151 12.011  # 151
152 12.011  # 152
153 12.011  # 153
154 12.011  # 154
155 12.011  # 155
156 12.011  # 156
157 12.011  # 157
158 12.011  # 158
159 12.011  # 159
160 12.011  # 160
161 12.011  # 161
162 12.011  # 162
163 12.011  # 163
164 32.06  # 164
165 12.011  # 165
166 12.011  # 166
167 12.011  # 167
168 35.453  # 168
169 12.011  # 169
170 12.011  # 170
171 12.011  # 171
172 12.011  # 172
173 12.011  # 173
174 12.011  # 174
175 12.011  # 175
176 12.011  # 176
177 12.011  # 177
178 15.999  # 178
179 14.007  # 179
180 14.007  # 180
181 14.007  # 181
182 1.008  # 182
183 1.008  # 183
184 12.011  # 184
185 12.011  # 185
186 12.011  # 186
187 12.011  # 187
188 12.011  # 188
189 12.011  # 189
190 15.999  # 190
191 14.007  # 191
192 1.008  # 192
193 14.007  # 193
194 12.011  # 194
195 15.999  # 195
196 1.008  # 196
197 1.008  # 197
198 12.011  # 198
199 12.011  # 199
200 12.011  # 200
201 12.011  # 201
202 12.011  # 202
203 12.011  # 203
204 14.007  # 204
205 12.011  # 205
206 35.453  # 206
207 14.007  # 207
208 12.011  # 208
209 12.011  # 209
210 15.999  # 210
211 15.999  # 211
212 1.008  # 212
213 12.011  # 213
214 15.999  # 214
215 12.011  # 215
216 12.011  # 216
217 12.011  # 217
218 12.011  # 218
219 12.011  # 219
220 15.999  # 220
221 1.008  # 221
222 12.011  # 222
223 15.999  # 223
224 1.008  # 224
225 12.011  # 225
226 12.011  # 226
227 12.011  # 227
228 12.011  # 228
229 14.007  # 229
230 14.007  # 230
231 14.007  # 231
232 1.008  # 232
233 1.008  # 233
234 12.011  # 234
235 12.011  # 235
236 12.011  # 236
237 12.011  # 237
238 12.011  # 238
239 12.011  # 239
240 12.011  # 240
241 12.011  # 241
242 12.011  # 242
243 14.007  # 243
244 1.008  # 244
245 12.011  # 245
246 14.007  # 246
247 1.008  # 247
248 12.011  # 248
249 12.011  # 249
250 12.011  # 250
251 12.011  # 251
252 14.007  # 252
253 1.008  # 253
254 14.007  # 254
255 12.011  # 255
256 14.007  # 256
257 1.008  # 257
258 12.011  # 258
259 1.008  # 259
260 12.011  # 260
261 1.008  # 261
262 14.007  # 262
263 12.011  # 263
264 14.007  # 264
265 12.011  # 265
266 12.011  # 266
267 12.011  # 267
268 1.008  # 268
269 15.999  # 269
270 1.008  # 270
271 15.999  # 271
272 1.008  # 272
273 1.008  # 273
274 12.011  # 274
275 1.008  # 275
276 14.007  # 276
277 12.011  # 277
278 14.007  # 278
279 12.011  # 279
280 12.011  # 280
281 12.011  # 281
282 1.008  # 282
283 15.999  # 283
284 14.007  # 284
285 1.008  # 285
286 1.008  # 286
287 1.008  # 287
288 1.008  # 288
289 14.007  # 289
290 12.011  # 290
291 14.007  # 291
292 12.011  # 292
293 12.011  # 293
294 12.011  # 294
295 14.007  # 295
296 12.011  # 296
297 14.007  # 297
298 1.008  # 298
299 14.007  # 299
300 1.008  # 300
301 1.008  # 301
302 1.008  # 302
303 1.008  # 303
304 14.007  # 304
305 12.011  # 305
306 14.007  # 306
307 12.011  # 307
308 12.011  # 308
309 12.011  # 309
310 1.008  # 310
311 14.007  # 311
312 1.008  # 312
313 15.999  # 313
314 12.011  # 314
315 1.008  # 315
316 12.011  # 316
317 1.008  # 317
318 12.011  # 318
319 1.008  # 319
320 14.007  # 320
321 12.011  # 321
322 14.007  # 322
323 12.011  # 323
324 12.011  # 324
325 12.011  # 325
326 1.008  # 326
327 15.999  # 327
328 1.008  # 328
329 14.007  # 329
330 1.008  # 330
331 1.008  # 331
332 1.008  # 332
333 1.008  # 333
334 12.011  # 334
335 1.008  # 335
336 30.974  # 336
337 15.999  # 337
338 15.999  # 338
339 15.035  # 339
340 12.011  # 340
341 35.453  # 341
342 12.011  # 342
343 18.998  # 343
344 35.453  # 344
345 79.904  # 345
346 126.905  # 346
347 18.039  # 347
348 6.941  # 348
349 22.99  # 349
350 39.098  # 350
351 85.468  # 351
352 132.905  # 352
353 24.305  # 353
354 40.08  # 354
355 87.62  # 355
356 137.33  # 356
357 12.011  # 357
358 1.008  # 358
359 32.06  # 359
360 12.011  # 360
361 1.008  # 361
362 15.999  # 362
363 12.011  # 363
364 1.008  # 364
365 12.011  # 365
366 14.007  # 366
367 12.011  # 367
368 1.008  # 368
369 14.007  # 369
370 1.008  # 370
371 12.011  # 371
372 1.008  # 372
373 12.011  # 373
374 1.008  # 374
375 1e-30  # 375
376 15.999  # 376
377 1.008  # 377
378 238.029  # 378
379 15.999  # 379
380 15.999  # 380
381 30.974  # 381
382 15.999  # 382
383 15.999  # 383
384 12.011  # 384
385 1.008  # 385
386 30.974  # 386
387 15.999  # 387
388 15.999  # 388
389 12.011  # 389
390 1.008  # 390
391 30.974  # 391
392 15.999  # 392
393 15.999  # 393
394 12.011  # 394
395 1.008  # 395
396 12.011  # 396
397 1.008  # 397
398 12.011  # 398
399 12.011  # 399
400 1.008  # 400
401 12.011  # 401
402 12.011  # 402
403 1.008  # 403
404 12.011  # 404
405 12.011  # 405
406 12.011  # 406
407 15.999  # 407
408 15.999  # 408
409 12.011  # 409
410 1.008  # 410
411 12.011  # 411
412 12.011  # 412
413 12.011  # 413
414 15.999  # 414
415 32.06  # 415
416 15.999  # 416
417 12.011  # 417
418 1.008  # 418
419 14.007  # 419
420 1.008  # 420
421 14.007  # 421
422 1.008  # 422
423 12.011  # 423
424 1.008  # 424
425 12.011  # 425
426 1.008  # 426
427 12.011  # 427
428 1.008  # 428
429 12.011  # 429
430 12.011  # 430
431 12.011  # 431
432 12.011  # 432
433 12.011  # 433
434 32.06  # 434
435 15.999  # 435
436 32.06  # 436
437 32.06  # 437
438 15.999  # 438
439 12.011  # 439
440 12.011  # 440
441 12.011  # 441
442 12.011  # 442
443 12.011  # 443
444 14.007  # 444
445 1.008  # 445
446 12.011  # 446
447 12.011  # 447
448 12.011  # 448
449 12.011  # 449
450 12.011  # 450
451 12.011  # 451
452 14.007  # 452
453 14.007  # 453
454 1.008  # 454
455 12.011  # 455
456 12.011  # 456
457 12.011  # 457
458 12.011  # 458
459 12.011  # 459
460 12.011  # 460
461 14.007  # 461
462 12.011  # 462
463 12.011  # 463
464 12.011  # 464
465 1.008  # 465
466 1.008  # 466
467 1.008  # 467
468 14.007  # 468
469 12.011  # 469
470 1.008  # 470
471 14.007  # 471
472 12.011  # 472
473 12.011  # 473
474 12.011  # 474
475 1.008  # 475
476 1.008  # 476
477 1.008  # 477
478 14.007  # 478
479 12.011  # 479
480 12.011  # 480
481 1.008  # 481
482 1.008  # 482
483 14.007  # 483
484 12.011  # 484
485 12.011  # 485
486 1.008  # 486
487 1.008  # 487
488 1.008  # 488
489 14.007  # 489
490 14.007  # 490
491 12.011  # 491
492 12.011  # 492
493 12.011  # 493
494 1.008  # 494
495 1.008  # 495
496 1.008  # 496
497 1.008  # 497
498 14.007  # 498
499 12.011  # 499
500 14.007  # 500
501 12.011  # 501
502 12.011  # 502
503 1.008  # 503
504 1.008  # 504
505 1.008  # 505
506 1.008  # 506
507 15.999  # 507
508 12.011  # 508
509 12.011  # 509
510 1.008  # 510
511 1.008  # 511
512 15.999  # 512
513 12.011  # 513
514 14.007  # 514
515 12.011  # 515
516 12.011  # 516
517 1.008  # 517
518 1.008  # 518
519 1.008  # 519
520 15.999  # 520
521 14.007  # 521
522 12.011  # 522
523 12.011  # 523
524 12.011  # 524
525 1.008  # 525
526 1.008  # 526
527 1.008  # 527
528 14.007  # 528
529 12.011  # 529
530 12.011  # 530
531 12.011  # 531
532 12.011  # 532
533 12.011  # 533
534 12.011  # 534
535 12.011  # 535
536 12.011  # 536
537 1.008  # 537
538 1.008  # 538
539 1.008  # 539
540 1.008  # 540
541 1.008  # 541
542 1.008  # 542
543 1.008  # 543
544 14.007  # 544
545 12.011  # 545
546 12.011  # 546
547 12.011  # 547
548 12.011  # 548
549 12.011  # 549
550 12.011  # 550
551 12.011  # 551
552 12.011  # 552
553 12.011  # 553
554 1.008  # 554
555 1.008  # 555
556 1.008  # 556
557 1.008  # 557
558 1.008  # 558
559 1.008  # 559
560 1.008  # 560
561 14.007  # 561
562 12.011  # 562
563 14.007  # 563
564 12.011  # 564
565 12.011  # 565
566 12.011  # 566
567 14.007  # 567
568 12.011  # 568
569 14.007  # 569
570 1.008  # 570
571 1.008  # 571
572 1.008  # 572
573 1.008  # 573
574 32.06  # 574
575 12.011  # 575
576 14.007  # 576
577 12.011  # 577
578 12.011  # 578
579 1.008  # 579
580 1.008  # 580
581 1.008  # 581
582 14.007  # 582
583 12.011  # 583
584 1.008  # 584
585 12.011  # 585
586 12.011  # 586
587 14.007  # 587
588 12.011  # 588
589 12.011  # 589
590 12.011  # 590
591 12.011  # 591
592 12.011  # 592
593 12.011  # 593
594 1.008  # 594
595 1.008  # 595
596 1.008  # 596
597 1.008  # 597
598 14.007  # 598
599 12.011  # 599
600 14.007  # 600
601 12.011  # 601
602 12.011  # 602
603 12.011  # 603
604 1.008  # 604
605 1.008  # 605
606 1.008  # 606
607 1.008  # 607
608 12.011  # 608
609 12.011  # 609
610 12.011  # 610
611 12.011  # 611
612 12.011  # 612
613 12.011  # 613
614 12.011  # 614
615 12.011  # 615
616 12.011  # 616
617 12.011  # 617
618 12.011  # 618
619 12.011  # 619
620 12.011  # 620
621 12.011  # 621
622 12.011  # 622
623 32.06  # 623
624 1.008  # 624
625 12.011  # 625
626 12.011  # 626
627 14.007  # 627
628 12.011  # 628
629 12.011  # 629
630 12.011  # 630
631 12.011  # 631
632 12.011  # 632
633 12.011  # 633
634 12.011  # 634
635 12.011  # 635
636 12.011  # 636
637 32.06  # 637
638 227.0  # 638
639 232.038  # 639
640 243.0  # 640
641 12.011  # 641
642 12.011  # 642
643 1.008  # 643
644 138.906  # 644
645 144.24  # 645
646 151.96  # 646
647 157.25  # 647
648 173.04  # 648
649 12.011  # 649
650 35.453  # 650
651 1.008  # 651
652 12.011  # 652
653 12.011  # 653
654 12.011  # 654
655 12.011  # 655
656 1.008  # 656
657 12.011  # 657
658 1.008  # 658
659 12.011  # 659
660 18.998  # 660
661 12.011  # 661
662 18.998  # 662
663 79.904  # 663
664 14.027  # 664
665 12.011  # 665
666 12.011  # 666
667 18.998  # 667
668 12.011  # 668
669 18.998  # 669
670 12.011  # 670
671 79.904  # 671
672 12.011  # 672
673 126.905  # 673
674 12.011  # 674
675 32.06  # 675
676 12.011  # 676
677 12.011  # 677
678 12.011  # 678
679 12.011  # 679
680 12.011  # 680
681 1.008  # 681
682 1.008  # 682
683 12.011  # 683
684 14.007  # 684
685 1.008  # 685
686 1.008  # 686
687 1.008  # 687
688 12.011  # 688
689 12.011  # 689
690 14.007  # 690
691 14.007  # 691
692 14.007  # 692
693 12.011  # 693
694 14.007  # 694
695 12.011  # 695
696 12.011  # 696
697 12.011  # 697
698 12.011  # 698
699 12.011  # 699
700 1.008  # 700
701 14.007  # 701
702 15.999  # 702
703 12.011  # 703
704 1.008  # 704
705 12.011  # 705
706 12.011  # 706
707 12.011  # 707
708 14.007  # 708
709 12.011  # 709
710 12.011  # 710
711 14.007  # 711
712 15.999  # 712
713 12.011  # 713
714 15.999  # 714
715 12.011  # 715
716 12.011  # 716
717 12.011  # 717
718 1.008  # 718
719 1.008  # 719
720 1.008  # 720
721 15.999  # 721
722 30.974  # 722
723 12.011  # 723
724 12.011  # 724
725 1.008  # 725
726 30.974  # 726
727 18.998  # 727
728 14.007  # 728
729 15.999  # 729
730 14.007  # 730
731 14.007  # 731
732 14.007  # 732
733 12.011  # 733
734 12.011  # 734
735 12.011  # 735
736 12.011  # 736
737 12.011  # 737
738 12.011  # 738
739 1.008  # 739
740 1.008  # 740
741 1.008  # 741
742 12.011  # 742
743 12.011  # 743
744 12.011  # 744
745 12.011  # 745
746 12.011  # 746
747 12.011  # 747
748 12.011  # 748
749 12.011  # 749
750 12.011  # 750
751 12.011  # 751
752 12.011  # 752
753 12.011  # 753
754 12.011  # 754
755 12.011  # 755
756 1.008  # 756
757 12.011  # 757
758 12.011  # 758
759 12.011  # 759
760 1.008  # 760
761 12.011  # 761
762 12.011  # 762
763 12.011  # 763
764 15.999  # 764
765 1.008  # 765
766 14.007  # 766
767 14.007  # 767
768 14.007  # 768
769 12.011  # 769
770 14.007  # 770
771 1.008  # 771
772 12.011  # 772
773 12.011  # 773
774 12.011  # 774
775 12.011  # 775
776 12.011  # 776
777 12.011  # 777
778 12.011  # 778
779 12.011  # 779
780 1.008  # 780
781 12.011  # 781
782 12.011  # 782
783 14.007  # 783
784 15.999  # 784
785 1.008  # 785
786 18.998  # 786
787 12.011  # 787
788 1.008  # 788
789 12.011  # 789
790 12.011  # 790
791 12.011  # 791
792 12.011  # 792
793 12.011  # 793
794 12.011  # 794
795 18.998  # 795
796 12.011  # 796
797 1.008  # 797
798 12.011  # 798
799 12.011  # 799
800 35.453  # 800
801 12.011  # 801
802 1.008  # 802
803 12.011  # 803
804 12.011  # 804
805 79.904  # 805
806 12.011  # 806
807 1.008  # 807
808 12.011  # 808
809 12.011  # 809
810 18.998  # 810
811 35.453  # 811
812 79.904  # 812
813 12.011  # 813
814 15.999  # 814
815 12.011  # 815
816 18.998  # 816
817 14.007  # 817
818 12.011  # 818
819 12.011  # 819
820 12.011  # 820
821 12.011  # 821
822 15.999  # 822
823 14.007  # 823
824 1.008  # 824
825 15.999  # 825
826 1.008  # 826
827 12.011  # 827
828 12.011  # 828
829 12.011  # 829
830 12.011  # 830
831 12.011  # 831
832 12.011  # 832
833 12.011  # 833
834 1e-30  # 834
835 12.011  # 835
836 12.011  # 836
837 12.011  # 837
838 126.905  # 838
839 1.008  # 839
840 14.007  # 840
841 12.011  # 841
842 12.011  # 842
843 14.007  # 843
844 12.011  # 844
845 12.011  # 845
846 15.999  # 846
847 14.007  # 847
848 12.011  # 848
849 12.011  # 849
850 12.011  # 850
851 12.011  # 851
852 1.008  # 852
853 12.011  # 853
854 15.999  # 854
855 1.008  # 855
856 12.011  # 856
857 12.011  # 857
858 12.011  # 858
859 12.011  # 859
860 12.011  # 860
861 12.011  # 861
862 12.011  # 862
863 12.011  # 863
864 12.011  # 864
865 12.011  # 865
866 28.086  # 866
867 28.086  # 867
868 28.086  # 868
869 28.086  # 869
870 1.008  # 870
871 12.011  # 871
872 12.011  # 872
873 12.011  # 873
874 12.011  # 874
875 18.998  # 875
876 35.453  # 876
877 79.904  # 877
878 126.905  # 878
879 6.941  # 879
880 22.99  # 880
881 39.098  # 881
882 85.468  # 882
883 132.905  # 883
884 24.305  # 884
885 40.08  # 885
886 87.62  # 886
887 137.33  # 887
888 12.011  # 888
889 12.011  # 889
890 12.011  # 890
891 12.011  # 891
892 1.008  # 892
893 14.007  # 893
894 12.011  # 894
895 14.007  # 895
896 12.011  # 896
897 12.011  # 897
898 12.011  # 898
899 1.008  # 899
900 12.011  # 900
901 12.011  # 901
902 12.011  # 902
903 12.011  # 903
904 12.011  # 904
905 15.999  # 905
906 12.011  # 906

Atoms  # full

1 1 80 0.0 0.0 0.4431163 0.0
2 1 85 0.0 0.0 1.0741603 0.892431
3 1 85 0.0 0.0 1.0741603 -0.892431
4 1 85 0.0 -0.892431 -0.18792770000000003 0.0
5 1 81 0.0 1.2533223 -0.4431163 5.4266095844501834e-17
6 1 85 0.0 1.2533223 -1.0741603000000002 -0.8924309999999999
7 1 85 0.0 1.2533223 -1.0741603 0.8924310000000001
8 1 81 0.0 2.5066446 0.4431163 0.0
9 1 85 0.0 2.5066446 1.0741603 0.892431
10 1 85 0.0 2.5066446 1.0741603 -0.892431
11 1 80 0.0 3.7599669 -0.4431163 0.0
12 1 85 0.0 3.7599669 -1.0741603 0.892431
13 1 85 0.0 3.7599669 -1.0741603 -0.892431
14 1 85 0.0 4.6523978999999995 0.18792769999999992 0.0
15 2 80 0.0 10.4 0.4431163 0.0
16 2 85 0.0 10.4 1.0741603 0.892431
17 2 85 0.0 10.4 1.0741603 -0.892431
18 2 85 0.0 9.507569 -0.18792770000000003 0.0
19 2 81 0.0 11.653322300000001 -0.4431163 5.4266095844501834e-17
20 2 85 0.0 11.653322300000001 -1.0741603000000002 -0.8924309999999999
21 2 85 0.0 11.653322300000001 -1.0741603 0.8924310000000001
22 2 81 0.0 12.9066446 0.4431163 0.0
23 2 85 0.0 12.9066446 1.0741603 0.892431
24 2 85 0.0 12.9066446 1.0741603 -0.892431
25 2 80 0.0 14.1599669 -0.4431163 0.0
26 2 85 0.0 14.1599669 -1.0741603 0.892431
27 2 85 0.0 14.1599669 -1.0741603 -0.892431
28 2 85 0.0 15.0523979 0.18792769999999992 0.0
29 3 80 0.0 20.8 0.4431163 0.0
30 3 85 0.0 20.8 1.0741603 0.892431
31 3 85 0.0 20.8 1.0741603 -0.892431
32 3 85 0.0 19.907569000000002 -0.18792770000000003 0.0
33 3 81 0.0 22.0533223 -0.4431163 5.4266095844501834e-17
34 3 85 0.0 22.0533223 -1.0741603000000002 -0.8924309999999999
35 3 85 0.0 22.0533223 -1.0741603 0.8924310000000001
36 3 81 0.0 23.306644600000002 0.4431163 0.0
37 3 85 0.0 23.306644600000002 1.0741603 0.892431
38 3 85 0.0 23.306644600000002 1.0741603 -0.892431
39 3 80 0.0 24.5599669 -0.4431163 0.0
40 3 85 0.0 24.5599669 -1.0741603 0.892431
41 3 85 0.0 24.5599669 -1.0741603 -0.892431
42 3 85 0.0 25.452397899999998 0.18792769999999992 0.0
43 4 80 0.0 0.0 5.6431163 0.0
44 4 85 0.0 0.0 6.2741603 0.892431
45 4 85 0.0 0.0 6.2741603 -0.892431
46 4 85 0.0 -0.892431 5.0120723 0.0
47 4 81 0.0 1.2533223 4.7568837 5.4266095844501834e-17
48 4 85 0.0 1.2533223 4.1258397 -0.8924309999999999
49 4 85 0.0 1.2533223 4.1258397 0.8924310000000001
50 4 81 0.0 2.5066446 5.6431163 0.0
51 4 85 0.0 2.5066446 6.2741603 0.892431
52 4 85 0.0 2.5066446 6.2741603 -0.892431
53 4 80 0.0 3.7599669 4.7568837 0.0
54 4 85 0.0 3.7599669 4.1258397 0.892431
55 4 85 0.0 3.7599669 4.1258397 -0.892431
56 4 85 0.0 4.6523978999999995 5.3879277000000005 0.0
57 5 80 0.0 10.4 5.6431163 0.0
58 5 85 0.0 10.4 6.2741603 0.892431
59 5 85 0.0 10.4 6.2741603 -0.892431
60 5 85 0.0 9.507569 5.0120723 0.0
61 5 81 0.0 11.653322300000001 4.7568837 5.4266095844501834e-17
62 5 85 0.0 11.653322300000001 4.1258397 -0.8924309999999999
63 5 85 0.0 11.653322300000001 4.1258397 0.8924310000000001
64 5 81 0.0 12.9066446 5.6431163 0.0
65 5 85 0.0 12.9066446 6.2741603 0.892431
66 5 85 0.0 12.9066446 6.2741603 -0.892431
67 5 80 0.0 14.1599669 4.7568837 0.0
68 5 85 0.0 14.1599669 4.1258397 0.892431
69 5 85 0.0 14.1599669 4.1258397 -0.892431
70 5 85 0.0 15.0523979 5.3879277000000005 0.0
71 6 80 0.0 20.8 5.6431163 0.0
72 6 85 0.0 20.8 6.2741603 0.892431
73 6 85 0.0 20.8 6.2741603 -0.892431
74 6 85 0.0 19.907569000000002 5.0120723 0.0
75 6 81 0.0 22.0533223 4.7568837 5.4266095844501834e-17
76 6 85 0.0 22.0533223 4.1258397 -0.8924309999999999
77 6 85 0.0 22.0533223 4.1258397 0.8924310000000001
78 6 81 0.0 23.306644600000002 5.6431163 0.0
79 6 85 0.0 23.306644600000002 6.2741603 0.892431
80 6 85 0.0 23.306644600000002 6.2741603 -0.892431
81 6 80 0.0 24.5599669 4.7568837 0.0
82 6 85 0.0 24.5599669 4.1258397 0.892431
83 6 85 0.0 24.5599669 4.1258397 -0.892431
84 6 85 0.0 25.452397899999998 5.3879277000000005 0.0
85 7 80 0.0 0.0 0.4431163 5.2
86 7 85 0.0 0.0 1.0741603 6.092431
87 7 85 0.0 0.0 1.0741603 4.307569
88 7 85 0.0 -0.892431 -0.18792770000000003 5.2
89 7 81 0.0 1.2533223 -0.4431163 5.2
90 7 85 0.0 1.2533223 -1.0741603000000002 4.307569
91 7 85 0.0 1.2533223 -1.0741603 6.092431
92 7 81 0.0 2.5066446 0.4431163 5.2
93 7 85 0.0 2.5066446 1.0741603 6.092431
94 7 85 0.0 2.5066446 1.0741603 4.307569
95 7 80 0.0 3.7599669 -0.4431163 5.2
96 7 85 0.0 3.7599669 -1.0741603 6.092431
97 7 85 0.0 3.7599669 -1.0741603 4.307569
98 7 85 0.0 4.6523978999999995 0.18792769999999992 5.2
99 8 80 0.0 10.4 0.4431163 5.2
100 8 85 0.0 10.4 1.0741603 6.092431
101 8 85 0.0 10.4 1.0741603 4.307569
102 8 85 0.0 9.507569 -0.18792770000000003 5.2
103 8 81 0.0 11.653322300000001 -0.4431163 5.2
104 8 85 0.0 11.653322300000001 -1.0741603000000002 4.307569
105 8 85 0.0 11.653322300000001 -1.0741603 6.092431
106 8 81 0.0 12.9066446 0.4431163 5.2
107 8 85 0.0 12.9066446 1.0741603 6.092431
108 8 85 0.0 12.9066446 1.0741603 4.307569
109 8 80 0.0 14.1599669 -0.4431163 5.2
110 8 85 0.0 14.1599669 -1.0741603 6.092431
111 8 85 0.0 14.1599669 -1.0741603 4.307569
112 8 85 0.0 15.0523979 0.18792769999999992 5.2
113 9 80 0.0 20.8 0.4431163 5.2
114 9 85 0.0 20.8 1.0741603 6.092431
115 9 85 0.0 20.8 1.0741603 4.307569
116 9 85 0.0 19.907569000000002 -0.18792770000000003 5.2
117 9 81 0.0 22.0533223 -0.4431163 5.2
118 9 85 0.0 22.0533223 -1.0741603000000002 4.307569
119 9 85 0.0 22.0533223 -1.0741603 6.092431
120 9 81 0.0 23.306644600000002 0.4431163 5.2
121 9 85 0.0 23.306644600000002 1.0741603 6.092431
122 9 85 0.0 23.306644600000002 1.0741603 4.307569
123 9 80 0.0 24.5599669 -0.4431163 5.2
124 9 85 0.0 24.5599669 -1.0741603 6.092431
125 9 85 0.0 24.5599669 -1.0741603 4.307569
126 9 85 0.0 25.452397899999998 0.18792769999999992 5.2
127 10 80 0.0 0.0 5.6431163 5.2
128 10 85 0.0 0.0 6.2741603 6.092431
129 10 85 0.0 0.0 6.2741603 4.307569
130 10 85 0.0 -0.892431 5.0120723 5.2
131 10 81 0.0 1.2533223 4.7568837 5.2
132 10 85 0.0 1.2533223 4.1258397 4.307569
133 10 85 0.0 1.2533223 4.1258397 6.092431
134 10 81 0.0 2.5066446 5.6431163 5.2
135 10 85 0.0 2.5066446 6.2741603 6.092431
136 10 85 0.0 2.5066446 6.2741603 4.307569
137 10 80 0.0 3.7599669 4.7568837 5.2
138 10 85 0.0 3.7599669 4.1258397 6.092431
139 10 85 0.0 3.7599669 4.1258397 4.307569
140 10 85 0.0 4.6523978999999995 5.3879277000000005 5.2
141 11 80 0.0 10.4 5.6431163 5.2
142 11 85 0.0 10.4 6.2741603 6.092431
143 11 85 0.0 10.4 6.2741603 4.307569
144 11 85 0.0 9.507569 5.0120723 5.2
145 11 81 0.0 11.653322300000001 4.7568837 5.2
146 11 85 0.0 11.653322300000001 4.1258397 4.307569
147 11 85 0.0 11.653322300000001 4.1258397 6.092431
148 11 81 0.0 12.9066446 5.6431163 5.2
149 11 85 0.0 12.9066446 6.2741603 6.092431
150 11 85 0.0 12.9066446 6.2741603 4.307569
151 11 80 0.0 14.1599669 4.7568837 5.2
152 11 85 0.0 14.1599669 4.1258397 6.092431
153 11 85 0.0 14.1599669 4.1258397 4.307569
154 11 85 0.0 15.0523979 5.3879277000000005 5.2
155 12 80 0.0 20.8 5.6431163 5.2
156 12 85 0.0 20.8 6.2741603 6.092431
157 12 85 0.0 20.8 6.2741603 4.307569
158 12 85 0.0 19.907569000000002 5.0120723 5.2
159 12 81 0.0 22.0533223 4.7568837 5.2
160 12 85 0.0 22.0533223 4.1258397 4.307569
161 12 85 0.0 22.0533223 4.1258397 6.092431
162 12 81 0.0 23.306644600000002 5.6431163 5.2
163 12 85 0.0 23.306644600000002 6.2741603 6.092431
164 12 85 0.0 23.306644600000002 6.2741603 4.307569
165 12 80 0.0 24.5599669 4.7568837 5.2
166 12 85 0.0 24.5599669 4.1258397 6.092431
167 12 85 0.0 24.5599669 4.1258397 4.307569
168 12 85 0.0 25.452397899999998 5.3879277000000005 5.2

Bonds

1 125 1 2
2 125 1 3
3 125 1 4
4 125 5 6
5 125 5 7
6 125 8 9
7 125 8 10
8 125 11 12
9 125 11 13
10 125 11 14
11 113 1 5
12 113 5 8
13 113 8 11
14 125 15 16
15 125 15 17
16 125 15 18
17 125 19 20
18 125 19 21
19 125 22 23
20 125 22 24
21 125 25 26
22 125 25 27
23 125 25 28
24 113 15 19
25 113 19 22
26 113 22 25
27 125 29 30
28 125 29 31
29 125 29 32
30 125 33 34
31 125 33 35
32 125 36 37
33 125 36 38
34 125 39 40
35 125 39 41
36 125 39 42
37 113 29 33
38 113 33 36
39 113 36 39
40 125 43 44
41 125 43 45
42 125 43 46
43 125 47 48
44 125 47 49
45 125 50 51
46 125 50 52
47 125 53 54
48 125 53 55
49 125 53 56
50 113 43 47
51 113 47 50
52 113 50 53
53 125 57 58
54 125 57 59
55 125 57 60
56 125 61 62
57 125 61 63
58 125 64 65
59 125 64 66
60 125 67 68
61 125 67 69
62 125 67 70
63 113 57 61
64 113 61 64
65 113 64 67
66 125 71 72
67 125 71 73
68 125 71 74
69 125 75 76
70 125 75 77
71 125 78 79
72 125 78 80
73 125 81 82
74 125 81 83
75 125 81 84
76 113 71 75
77 113 75 78
78 113 78 81
79 125 85 86
80 125 85 87
81 125 85 88
82 125 89 90
83 125 89 91
84 125 92 93
85 125 92 94
86 125 95 96
87 125 95 97
88 125 95 98
89 113 85 89
90 113 89 92
91 113 92 95
92 125 99 100
93 125 99 101
94 125 99 102
95 125 103 104
96 125 103 105
97 125 106 107
98 125 106 108
99 125 109 110
100 125 109 111
101 125 109 112
102 113 99 103
103 113 103 106
104 113 106 109
105 125 113 114
106 125 113 115
107 125 113 116
108 125 117 118
109 125 117 119
110 125 120 121
111 125 120 122
112 125 123 124
113 125 123 125
114 125 123 126
115 113 113 117
116 113 117 120
117 113 120 123
118 125 127 128
119 125 127 129
120 125 127 130
121 125 131 132
122 125 131 133
123 125 134 135
124 125 134 136
125 125 137 138
126 125 137 139
127 125 137 140
128 113 127 131
129 113 131 134
130 113 134 137
131 125 141 142
132 125 141 143
133 125 141 144
134 125 145 146
135 125 145 147
136 125 148 149
137 125 148 150
138 125 151 152
139 125 151 153
140 125 151 154
141 113 141 145
142 113 145 148
143 113 148 151
144 125 155 156
145 125 155 157
146 125 155 158
147 125 159 160
148 125 159 161
149 125 162 163
150 125 162 164
151 125 165 166
152 125 165 167
153 125 165 168
154 113 155 159
155 113 159 162
156 113 162 165

Angles

1 199 1 5 8
2 199 5 8 11
3 199 15 19 22
4 199 19 22 25
5 199 29 33 36
6 199 33 36 39
7 199 43 47 50
8 199 47 50 53
9 199 57 61 64
10 199 61 64 67
11 199 71 75 78
12 199 75 78 81
13 199 85 89 92
14 199 89 92 95
15 199 99 103 106
16 199 103 106 109
17 199 113 117 120
18 199 117 120 123
19 199 127 131 134
20 199 131 134 137
21 199 141 145 148
22 199 145 148 151
23 199 155 159 162
24 199 159 162 165
25 220 2 1 3
26 220 2 1 4
27 220 3 1 4
28 220 12 11 13
29 220 12 11 14
30 220 13 11 14
31 220 16 15 17
32 220 16 15 18
33 220 17 15 18
34 220 26 25 27
35 220 26 25 28
36 220 27 25 28
37 220 30 29 31
38 220 30 29 32
39 220 31 29 32
40 220 40 39 41
41 220 40 39 42
42 220 41 39 42
43 220 44 43 45
44 220 44 43 46
45 220 45 43 46
46 220 54 53 55
47 220 54 53 56
48 220 55 53 56
49 220 58 57 59
50 220 58 57 60
51 220 59 57 60
52 220 68 67 69
53 220 68 67 70
54 220 69 67 70
55 220 72 71 73
56 220 72 71 74
57 220 73 71 74
58 220 82 81 83
59 220 82 81 84
60 220 83 81 84
61 220 86 85 87
62 220 86 85 88
63 220 87 85 88
64 220 96 95 97
65 220 96 95 98
66 220 97 95 98
67 220 100 99 101
68 220 100 99 102
69 220 101 99 102
70 220 110 109 111
71 220 110 109 112
72 220 111 109 112
73 220 114 113 115
74 220 114 113 116
75 220 115 113 116
76 220 124 123 125
77 220 124 123 126
78 220 125 123 126
79 220 128 127 129
80 220 128 127 130
81 220 129 127 130
82 220 138 137 139
83 220 138 137 140
84 220 139 137 140
85 220 142 141 143
86 220 142 141 144
87 220 143 141 144
88 220 152 151 153
89 220 152 151 154
90 220 153 151 154
91 220 156 155 157
92 220 156 155 158
93 220 157 155 158
94 220 166 165 167
95 220 166 165 168
96 220 167 165 168
97 220 6 5 7
98 220 9 8 10
99 220 20 19 21
100 220 23 22 24
101 220 34 33 35
102 220 37 36 38
103 220 48 47 49
104 220 51 50 52
105 220 62 61 63
106 220 65 64 66
107 220 76 75 77
108 220 79 78 80
109 220 90 89 91
110 220 93 92 94
111 220 104 103 105
112 220 107 106 108
113 220 118 117 119
114 220 121 120 122
115 220 132 131 133
116 220 135 134 136
117 220 146 145 147
118 220 149 148 150
119 220 160 159 161
120 220 163 162 164
121 232 1 5 6
122 232 1 5 7
123 232 9 8 11
124 232 10 8 11
125 232 15 19 20
126 232 15 19 21
127 232 23 22 25
128 232 24 22 25
129 232 29 33 34
130 232 29 33 35
131 232 37 36 39
132 232 38 36 39
133 232 43 47 48
134 232 43 47 49
135 232 51 50 53
136 232 52 50 53
137 232 57 61 62
138 232 57 61 63
139 232 65 64 67
140 232 66 64 67
141 232 71 75 76
142 232 71 75 77
143 232 79 78 81
144 232 80 78 81
145 232 85 89 90
146 232 85 89 91
147 232 93 92 95
148 232 94 92 95
149 232 99 103 104
150 232 99 103 105
151 232 107 106 109
152 232 108 106 109
153 232 113 117 118
154 232 113 117 119
155 232 121 120 123
156 232 122 120 123
157 232 127 131 132
158 232 127 131 133
159 232 135 134 137
160 232 136 134 137
161 232 141 145 146
162 232 141 145 147
163 232 149 148 151
164 232 150 148 151
165 232 155 159 160
166 232 155 159 161
167 232 163 162 165
168 232 164 162 165
169 232 2 1 5
170 232 3 1 5
171 232 4 1 5
172 232 8 11 12
173 232 8 11 13
174 232 8 11 14
175 232 16 15 19
176 232 17 15 19
177 232 18 15 19
178 232 22 25 26
179 232 22 25 27
180 232 22 25 28
181 232 30 29 33
182 232 31 29 33
183 232 32 29 33
184 232 36 39 40
185 232 36 39 41
186 232 36 39 42
187 232 44 43 47
188 232 45 43 47
189 232 46 43 47
190 232 50 53 54
191 232 50 53 55
192 232 50 53 56
193 232 58 57 61
194 232 59 57 61
195 232 60 57 61
196 232 64 67 68
197 232 64 67 69
198 232 64 67 70
199 232 72 71 75
200 232 73 71 75
201 232 74 71 75
202 232 78 81 82
203 232 78 81 83
204 232 78 81 84
205 232 86 85 89
206 232 87 85 89
207 232 88 85 89
208 232 92 95 96
209 232 92 95 97
210 232 92 95 98
211 232 100 99 103
212 232 101 99 103
213 232 102 99 103
214 232 106 109 110
215 232 106 109 111
216 232 106 109 112
217 232 114 113 117
218 232 115 113 117
219 232 116 113 117
220 232 120 123 124
221 232 120 123 125
222 232 120 123 126
223 232 128 127 131
224 232 129 127 131
225 232 130 127 131
226 232 134 137 138
227 232 134 137 139
228 232 134 137 140
229 232 142 141 145
230 232 143 141 145
231 232 144 141 145
232 232 148 151 152
233 232 148 151 153
234 232 148 151 154
235 232 156 155 159
236 232 157 155 159
237 232 158 155 159
238 232 162 165 166
239 232 162 165 167
240 232 162 165 168
241 232 5 8 9
242 232 5 8 10
243 232 6 5 8
244 232 7 5 8