LAMMPS (29 Sep 2021)
Reading data file ...
  orthogonal box = (0.0000000 0.0000000 0.0000000) to (62.400000 62.400000 62.400000)
  2 by 2 by 2 MPI processor grid
  reading atoms ...
  168 atoms
  scanning bonds ...
  4 = max bonds/atom
  scanning angles ...
  6 = max angles/atom
  scanning dihedrals ...
  9 = max dihedrals/atom
  reading bonds ...
  156 bonds
  reading angles ...
  288 angles
  reading dihedrals ...
  324 dihedrals
Finding 1-2 1-3 1-4 neighbors ...
  special bond factors lj:    0        0        0.5     
  special bond factors coul:  0        0        0.5     
     4 = max # of 1-2 neighbors
     6 = max # of 1-3 neighbors
     9 = max # of 1-4 neighbors
    13 = max # of special neighbors
  special bonds CPU = 0.002 seconds
  read_data CPU = 0.015 seconds
Setting atom values ...
  24 settings made for charge
Setting atom values ...
  24 settings made for charge
Setting atom values ...
  120 settings made for charge
WARNING: Using 'neigh_modify every 1 delay 0 check yes' setting during minimization (../min.cpp:188)
PPPM initialization ...
  using 12-bit tables for long-range coulomb (../kspace.cpp:340)
  G vector (1/distance) = 0.077713503
  grid = 4 4 4
  stencil order = 5
  estimated absolute RMS force accuracy = 0.033197132
  estimated relative force accuracy = 9.9972176e-05
  using double precision KISS FFT
  3d grid and FFT values/proc = 343 8
Neighbor list info ...
  update every 1 steps, delay 0 steps, check yes
  max neighbors/atom: 2000, page size: 100000
  master list distance cutoff = 13
  ghost atom cutoff = 13
  binsize = 6.5, bins = 10 10 10
  1 neighbor lists, perpetual/occasional/extra = 1 0 0
  (1) pair lj/cut/coul/long, perpetual
      attributes: half, newton on
      pair build: half/bin/newton
      stencil: half/bin/3d
      bin: standard
Setting up cg style minimization ...
  Unit style    : real
  Current step  : 0
Per MPI rank memory allocation (min/avg/max) = 13.23 | 14.16 | 14.81 Mbytes
Step Time Temp Press Volume Density PotEng TotEng E_pair E_bond E_angle E_dihed 
       0            0            0   -22.469697    242970.62  0.004766856   0.16663352   0.16663352   0.10261751  0.004253558  0.059762447 1.4122301e-16 
      50           50            0   -2.3518543    242970.62  0.004766856 -0.0061535273 -0.0061535273 -0.023137078 0.00079101911  0.014452059 0.0017404729 
      61           61            0    -5.626192    242970.62  0.004766856 -0.0076420745 -0.0076420745 -0.026541446 0.0010279999  0.016203653 0.0016677178 
Loop time of 0.0569919 on 8 procs for 61 steps with 168 atoms

99.0% CPU use with 8 MPI tasks x no OpenMP threads

Minimization stats:
  Stopping criterion = energy tolerance
  Energy initial, next-to-last, final = 
     0.166633517576281 -0.0076420659999959 -0.00764207447661148
  Force two-norm initial, final = 101.42457 7.9244281
  Force max component initial, final = 14.922581 1.1855682
  Final line search alpha, max atom move = 0.042172023 0.049997810
  Iterations, force evaluations = 61 178

MPI task timing breakdown:
Section |  min time  |  avg time  |  max time  |%varavg| %total
---------------------------------------------------------------
Pair    | 1.9524e-05 | 0.0058212  | 0.019302   |   9.2 | 10.21
Bond    | 2.7135e-05 | 0.0032873  | 0.021047   |  12.1 |  5.77
Kspace  | 0.013316   | 0.044642   | 0.05374    |   6.3 | 78.33
Neigh   | 0          | 0          | 0          |   0.0 |  0.00
Comm    | 0.001203   | 0.0015402  | 0.0019929  |   0.6 |  2.70
Output  | 0.00028748 | 0.00028963 | 0.00030369 |   0.0 |  0.51
Modify  | 0          | 0          | 0          |   0.0 |  0.00
Other   |            | 0.001412   |            |       |  2.48

Nlocal:        21.0000 ave         106 max           0 min
Histogram: 5 1 0 1 0 0 0 0 0 1
Nghost:        139.000 ave         162 max          62 min
Histogram: 1 0 0 0 0 0 0 1 3 3
Neighs:        1135.00 ave        3769 max           0 min
Histogram: 4 1 0 0 1 0 0 1 0 1

Total # of neighbors = 9080
Ave neighs/atom = 54.047619
Ave special neighs/atom = 9.1428571
Neighbor list builds = 0
Dangerous builds = 0
System init for write_data ...
PPPM initialization ...
  using 12-bit tables for long-range coulomb (../kspace.cpp:340)
  G vector (1/distance) = 0.077713503
  grid = 4 4 4
  stencil order = 5
  estimated absolute RMS force accuracy = 0.033197132
  estimated relative force accuracy = 9.9972176e-05
  using double precision KISS FFT
  3d grid and FFT values/proc = 343 8
PPPM initialization ...
  using 12-bit tables for long-range coulomb (../kspace.cpp:340)
  G vector (1/distance) = 0.077713503
  grid = 4 4 4
  stencil order = 5
  estimated absolute RMS force accuracy = 0.033197132
  estimated relative force accuracy = 9.9972176e-05
  using double precision KISS FFT
  3d grid and FFT values/proc = 343 8
Setting up Verlet run ...
  Unit style    : real
  Current step  : 61
  Time step     : 1
Per MPI rank memory allocation (min/avg/max) = 11.84 | 12.04 | 12.42 Mbytes
Step Time Temp Press Volume Density PotEng TotEng E_pair E_bond E_angle E_dihed 
      61            0          900    78.663092    242970.62  0.004766856 -0.0076420745    2.6591183 -0.026541446 0.0010279999  0.016203653 0.0016677178 
     100           39    676.63538    6.0286958    242970.62  0.004766856    1.3211606    3.3260766  0.096974989   0.36772198   0.67305441   0.18340917 
     150           89    720.48729    39.560037    242970.62  0.004766856    1.9780291    4.1128813   0.10622367   0.66204888     1.034358   0.17539853 
     200          139    764.30815   -10.446898    242970.62  0.004766856    2.3407523    4.6054487   0.10240842   0.98746273    1.0363761   0.21450504 
     250          189    890.20343    21.536549    242970.62  0.004766856    2.4600925     5.097825    0.1629454   0.88971222    1.2160768   0.19135805 
     300          239    922.00439     3.781749    242970.62  0.004766856    2.3714358    5.1033967   0.13774265   0.82669328    1.1841426   0.22285733 
     350          289    900.33257   -17.079732    242970.62  0.004766856    2.3304954    4.9982412   0.11141027   0.83019772    1.1793263   0.20956106 
     400          339    780.56255    76.952583    242970.62  0.004766856    2.3677403    4.6805995   0.16747662   0.78786745    1.1851238   0.22727246 
     450          389    843.40208   -35.350792    242970.62  0.004766856    2.2261317    4.7251887   0.14810064   0.75330268    1.0865342   0.23819426 
     500          439    869.93976   -39.741744    242970.62  0.004766856    2.0404911     4.618181   0.13374741   0.70683686    1.0082438   0.19166308 
     550          489    816.57865    21.199552    242970.62  0.004766856    2.2623469    4.6819242   0.17279859   0.73115975     1.169995   0.18839354 
     600          539    757.01867   -47.953822    242970.62  0.004766856    2.1909002    4.4339974   0.15309519   0.71416721    1.1123355   0.21130235 
     650          589     839.6146   -14.678809    242970.62  0.004766856    2.2892414    4.7770759   0.13137229    0.7604294     1.253641   0.14379877 
     700          639    824.83545    11.144411    242970.62  0.004766856     2.384852    4.8288948   0.14243671   0.81027781    1.2337651   0.19837233 
     750          689    874.80798    49.393696    242970.62  0.004766856    2.3439101    4.9360248   0.13374097   0.79763608    1.2481594   0.16437364 
     800          739    946.24509   -22.901906    242970.62  0.004766856    2.4404053     5.244193   0.17121529   0.88445762     1.156484   0.22824838 
     850          789     987.7501    96.200058    242970.62  0.004766856    2.5202794    5.4470492   0.14890072    0.9435249    1.2038441   0.22400964 
     900          839    946.86547   -6.5972053    242970.62  0.004766856    2.5195187    5.3251447   0.16981582   0.98215165    1.1452628    0.2222885 
     950          889    976.15758    107.03976    242970.62  0.004766856    2.4530749    5.3454953   0.15000066   0.81123736    1.2566015   0.23523535 
    1000          939    832.64373   -112.21694    242970.62  0.004766856    2.6981409    5.1653202   0.12753545   0.95675387    1.3908671   0.22298444 
    1050          989    883.92133    127.45606    242970.62  0.004766856    2.4188315    5.0379497   0.16014594   0.88879377    1.1961316   0.17376018 
    1100         1039    840.22044   -134.07094    242970.62  0.004766856    2.4446812    4.9343108   0.14539225   0.88832337    1.2178736   0.19309206 
    1150         1089    883.28743     140.7378    242970.62  0.004766856    2.3361939    4.9534338   0.16397096   0.76494474    1.1682869    0.2389913 
    1200         1139    942.59252   -25.982373    242970.62  0.004766856    2.3417005    5.1346654   0.13287148   0.86547108    1.1423767    0.2009813 
    1250         1189    866.72993    74.211156    242970.62  0.004766856    2.4192689    4.9874479   0.19857797   0.78498117    1.1899932   0.24571664 
    1300         1239    905.46129   -42.729955    242970.62  0.004766856    2.4477533    5.1306959   0.14404939   0.86270764     1.188858   0.25213828 
    1350         1289    889.85738    56.596996    242970.62  0.004766856    2.3498435    4.9865506    0.1598165   0.75296197    1.1988242    0.2382408 
    1400         1339    838.81917   -96.212233    242970.62  0.004766856    2.5997677    5.0852452   0.12662201   0.97968739    1.2803864   0.21307188 
    1450         1389    944.00751    28.194086    242970.62  0.004766856    2.3145141    5.1116718   0.15565064   0.88990064    1.0642002    0.2047627 
    1500         1439    910.74056   -22.718624    242970.62  0.004766856    2.5325327    5.2311181   0.16056619   0.91174451    1.2601248   0.20009725 
    1550         1489    957.50685   -17.165492    242970.62  0.004766856    2.5304073    5.3675644   0.14025428   0.91930764    1.2250172   0.24582821 
    1600         1539    1013.2812   -1.3418335    242970.62  0.004766856    2.5557017     5.558122   0.17902281   0.98269722    1.1649806   0.22900108 
    1650         1589    1050.5288    66.382909    242970.62  0.004766856    2.2591343    5.3719217   0.14919823   0.96098527    0.9330309   0.21591991 
    1700         1639    971.43872   -32.645882    242970.62  0.004766856    2.7045658    5.5830039   0.19107078   0.96303808    1.2954375   0.25501942 
    1750         1689    941.35009    20.968681    242970.62  0.004766856    2.5755926    5.3648761   0.14511043    1.0133951    1.2156063   0.20148079 
    1800         1739    912.05297   -57.298875    242970.62  0.004766856    2.6220033    5.3244775   0.16716113   0.87367541    1.3750973   0.20606945 
    1850         1789    1012.3727     31.47528    242970.62  0.004766856    2.4950885    5.4948169   0.19980346    0.8072665    1.2746713   0.21334725 
    1900         1839    963.01219   -33.880429    242970.62  0.004766856     2.513203    5.3666727   0.14311772   0.94233843    1.2093731   0.21837373 
    1950         1889    1036.7291    23.807746    242970.62  0.004766856    2.4560325    5.5279304   0.18396794   0.85943658    1.1770533   0.23557469 
    2000         1939    996.94048   -53.034633    242970.62  0.004766856    2.6909848    5.6449864   0.17394228    1.0058672    1.3025418   0.20863362 
    2050         1989    1014.2607    33.652507    242970.62  0.004766856     2.520187    5.5255095   0.23105847   0.82886113    1.2515493   0.20871805 
    2100         2039    989.65079   -71.846646    242970.62  0.004766856    2.4620781    5.3944799   0.13454369   0.84362235     1.282209   0.20170313 
    2150         2089    939.09487    132.05787    242970.62  0.004766856    2.5761533    5.3587544   0.20790391   0.84389023    1.3161327   0.20822645 
    2200         2139    887.90199   -64.418678    242970.62  0.004766856    2.8153439    5.4462571   0.17005871    1.0496922    1.3639329   0.23166014 
    2250         2189    1008.1982    90.990898    242970.62  0.004766856    2.7356713    5.7230304   0.18435704    1.0090523    1.2919254   0.25033654 
    2300         2239    1009.3105   -118.74411    242970.62  0.004766856    2.8261022    5.8167571   0.16977318    1.0165576    1.4063284     0.233443 
    2350         2289    966.65439     76.51206    242970.62  0.004766856    2.5020389    5.3663007   0.17841367   0.90560884    1.1919728   0.22604354 
    2400         2339    908.24575   -36.813491    242970.62  0.004766856    2.5873061    5.2784992   0.17615008   0.87797882    1.3254284   0.20774878 
    2450         2389    868.79346    55.042596    242970.62  0.004766856    2.4418227    5.0161161   0.14505052   0.89467743    1.1775223   0.22457251 
    2500         2439      846.942   -8.1088928    242970.62  0.004766856    2.6612941    5.1708401   0.18246555    1.0362093    1.2245935   0.21802573 
    2550         2489      832.688   -28.887529    242970.62  0.004766856    2.6714871    5.1387975   0.16002864    1.1232136    1.1572971   0.23094782 
    2600         2539    924.11695   -30.763035    242970.62  0.004766856    2.4440434    5.1822639   0.17186898   0.94149522    1.1431932   0.18748601 
    2650         2589    864.65479    -50.07967    242970.62  0.004766856     2.426116    4.9881462    0.1693075   0.83986286    1.1949288   0.22201684 
    2700         2639    969.56045     1.396209    242970.62  0.004766856    2.2686142    5.1414869   0.17377583   0.68946802    1.2159027   0.18946768 
    2750         2689     904.0462   -34.911568    242970.62  0.004766856    2.4759585    5.1547081   0.13529115   0.87948767    1.2477575   0.21342215 
    2800         2739    881.29044   -1.6432794    242970.62  0.004766856    2.5401886    5.1515113   0.16975397   0.85747914    1.3161061   0.19684933 
    2850         2789    925.99453   -52.494913    242970.62  0.004766856      2.36228    5.1060639   0.13069385   0.88310746    1.1543297   0.19414896 
    2900         2839     893.3555     84.23927    242970.62  0.004766856    2.6165521    5.2636244   0.17499179   0.89222569    1.3388847   0.21044992 
    2950         2889    857.17011    9.6038425    242970.62  0.004766856    2.5499093    5.0897618   0.15424746   0.84633749    1.3107609   0.23856344 
    3000         2939    879.63754   -45.837545    242970.62  0.004766856     2.685005    5.2914301   0.14458739   0.89775959    1.4238304   0.21882762 
    3050         2989    925.04089   -4.7954713    242970.62  0.004766856    2.6701375    5.4110958   0.15457041    1.0085759    1.2893276   0.21766358 
    3100         3039    938.03126   -95.932261    242970.62  0.004766856    2.6453228    5.4247724   0.12309698    1.1001658    1.2226018   0.19945829 
    3150         3089    1043.5182    37.461633    242970.62  0.004766856    2.3657998    5.4578142   0.17041094   0.83024393    1.1614009   0.20374404 
    3200         3139    912.73312     46.66923    242970.62  0.004766856      2.28104    4.9855295   0.12249958   0.65477647    1.2895775   0.21418651 
    3250         3189    878.53165   -53.639547    242970.62  0.004766856    2.4569404    5.0600887   0.18701183   0.96423977    1.1126721   0.19301674 
    3300         3239    868.67389   -61.255397    242970.62  0.004766856    2.5060975    5.0800365   0.15047578   0.95819771    1.2097488   0.18767525 
    3350         3289    906.32174    73.681207    242970.62  0.004766856    2.5153433    5.2008354   0.14537981   0.93685033    1.2620028   0.17111028 
    3400         3339    893.29916    64.936559    242970.62  0.004766856    2.4630741    5.1099795   0.20793722   0.82696666    1.1958542   0.23231601 
    3450         3389     982.5978   -55.269704    242970.62  0.004766856     2.322583    5.2340862   0.11251806   0.87083877    1.1555868   0.18363934 
    3500         3439    962.42662    17.644749    242970.62  0.004766856    2.4382948    5.2900294    0.1960255    0.7879079    1.2657526   0.18860878 
    3550         3489    969.92194    -8.323229    242970.62  0.004766856    2.1652992     5.039243   0.11630696   0.83369072    1.0484285   0.16687304 
    3600         3539    862.87764   -19.529604    242970.62  0.004766856    2.4246946     4.981459   0.15473363   0.90369684    1.1341767   0.23208744 
    3650         3589    859.19823    19.491205    242970.62  0.004766856    2.4359813    4.9818433   0.12762789    1.0353706    1.0900498   0.18293306 
    3700         3639    876.80832    1.4227479    242970.62  0.004766856    2.6180266    5.2160685   0.17212832   0.94930562    1.2992351   0.19735751 
    3750         3689     1010.844    0.1172245    242970.62  0.004766856    2.2717792    5.2669777   0.13014828   0.85113439    1.1323038   0.15819271 
    3800         3739    891.92005   -16.477652    242970.62  0.004766856    2.7657363    5.4085553   0.23493317    0.9630917     1.339091   0.22862047 
    3850         3789    903.46402    29.597855    242970.62  0.004766856    2.5629078    5.2399323   0.17730997   0.96384949    1.1900562   0.23169213 
    3900         3839     1026.433    -43.68612    242970.62  0.004766856    2.3964662    5.4378562   0.12900374    1.0259251    1.0556701    0.1858672 
    3950         3889    949.67387    29.197079    242970.62  0.004766856    2.4433746     5.257322   0.17860802   0.88655975     1.144842    0.2333648 
    4000         3939    934.55042    -51.81118    242970.62  0.004766856    2.5580208    5.3271564   0.15434589    1.0215066    1.1471482   0.23502017 
    4050         3989    953.66987   -47.615477    242970.62  0.004766856    2.4914233    5.3172112   0.14956967    1.0080677     1.137544   0.19624197 
    4061         4000    941.70702  -0.72104733    242970.62  0.004766856    2.6620607    5.4524018   0.15233571   0.99972904     1.306117   0.20387888 
Loop time of 0.800369 on 8 procs for 4000 steps with 168 atoms

Performance: 431.801 ns/day, 0.056 hours/ns, 4997.696 timesteps/s
98.7% CPU use with 8 MPI tasks x no OpenMP threads

MPI task timing breakdown:
Section |  min time  |  avg time  |  max time  |%varavg| %total
---------------------------------------------------------------
Pair    | 0.0064324  | 0.077091   | 0.19973    |  25.5 |  9.63
Bond    | 0.0016818  | 0.073757   | 0.22292    |  26.5 |  9.22
Kspace  | 0.25515    | 0.45066    | 0.57753    |  18.1 | 56.31
Neigh   | 0.018481   | 0.018835   | 0.019168   |   0.2 |  2.35
Comm    | 0.042994   | 0.082097   | 0.10013    |   6.3 | 10.26
Output  | 0.077113   | 0.077339   | 0.078008   |   0.1 |  9.66
Modify  | 0.0014423  | 0.0059658  | 0.016439   |   6.3 |  0.75
Other   |            | 0.01463    |            |       |  1.83

Nlocal:        21.0000 ave          71 max           1 min
Histogram: 4 1 0 0 1 0 1 0 0 1
Nghost:        134.000 ave         165 max          97 min
Histogram: 1 0 0 1 0 3 2 0 0 1
Neighs:        891.875 ave        2562 max          33 min
Histogram: 4 1 0 0 0 0 1 1 0 1

Total # of neighbors = 7135
Ave neighs/atom = 42.470238
Ave special neighs/atom = 9.1428571
Neighbor list builds = 212
Dangerous builds = 1
PPPM initialization ...
  using 12-bit tables for long-range coulomb (../kspace.cpp:340)
  G vector (1/distance) = 0.077713503
  grid = 4 4 4
  stencil order = 5
  estimated absolute RMS force accuracy = 0.033197132
  estimated relative force accuracy = 9.9972176e-05
  using double precision KISS FFT
  3d grid and FFT values/proc = 343 8
Setting up Verlet run ...
  Unit style    : real
  Current step  : 4061
  Time step     : 1
Per MPI rank memory allocation (min/avg/max) = 12.22 | 13.27 | 13.68 Mbytes
Step Time Temp Press Volume Density PotEng TotEng E_pair E_bond E_angle E_dihed 
    4061         4000    941.70702  -0.72104733    242970.62  0.004766856    2.6620607    5.4524018   0.15233571   0.99972904     1.306117   0.20387888 
    4100         4039    935.66182     69.11714    242970.62  0.004766856    2.6439097    5.4163384   0.22431025   0.88813943    1.3160985   0.21536153 
    4150         4089    933.21951   -26.862966    242970.62  0.004766856    2.5135658    5.2787579   0.15472175   0.80499988    1.3558834   0.19796078 
    4200         4139    943.07737   -11.339871    242970.62  0.004766856    2.2806976    5.0750992   0.15820165   0.78699815    1.1504318   0.18506599 
    4250         4189    867.42222    52.541087    242970.62  0.004766856    2.3457129    4.9159432    0.1723464   0.78450385    1.1562447   0.23261793 
    4300         4239    848.49215   -109.65508    242970.62  0.004766856    2.3732123    4.8873515   0.13329696   0.97915103    1.0561816   0.20458277 
    4350         4289    876.72886    107.83472    242970.62  0.004766856    2.3275287    4.9253352   0.21338623    0.9470965    0.9325413   0.23450471 
    4400         4339    856.14076   -107.52341    242970.62  0.004766856    2.4543878    4.9911903   0.17601966   0.95676927    1.0696991   0.25189974 
    4450         4389    943.85695    57.392668    242970.62  0.004766856      2.28318    5.0798915   0.17003266   0.85919913    1.0647949   0.18915338 
    4500         4439    887.03336  -0.35228705    242970.62  0.004766856    2.5384163    5.1667557   0.20330294   0.84323867    1.2484295    0.2434452 
    4550         4489     1015.027    18.290159    242970.62  0.004766856     2.223323    5.2309162   0.16408443   0.74635913    1.1193353   0.19354412 
    4600         4539    933.06895   -34.748204    242970.62  0.004766856    2.5241213    5.2888672   0.20225357   0.91289393    1.2080621    0.2009117 
    4650         4589    918.32532   -26.925241    242970.62  0.004766856    2.5836966    5.3047561   0.21315969   0.99822376    1.1898597   0.18245339 
    4700         4639    910.43202    58.788636    242970.62  0.004766856    2.5422319     5.239903   0.17751298   0.89079817     1.243633   0.23028775 
    4750         4689     884.7253    7.2753881    242970.62  0.004766856    2.4145341    5.0360345   0.20311969   0.94801444    1.0687994   0.19460053 
    4800         4739    842.55204   -36.922147    242970.62  0.004766856    2.3447529    4.8412912   0.17963163   0.84560542    1.1634175   0.15609835 
    4850         4789    811.52782    10.217382    242970.62  0.004766856    2.3584944    4.7631058   0.20239292   0.74438362    1.2278584   0.18385946 
    4900         4839    841.33653    47.798352    242970.62  0.004766856    2.3048124     4.797749   0.20264128   0.76420302     1.171455   0.16651313 
    4950         4889    860.81322   -24.599645    242970.62  0.004766856     2.387609    4.9382563   0.19161084   0.84192438    1.1666271   0.18744666 
    5000         4939    916.23066    61.909458    242970.62  0.004766856    2.4243198    5.1391727   0.19771644    1.0009031    1.0412204   0.18447988 
    5050         4989    906.18734   -18.307436    242970.62  0.004766856    2.5804428    5.2655367   0.21207563   0.95131717     1.251329   0.16572097 
    5100         5039      931.648    69.991057    242970.62  0.004766856    2.5561597    5.3166953   0.19095383   0.78682422    1.3439123   0.23446933 
    5150         5089    911.04088    18.827433    242970.62  0.004766856    2.6218835    5.3213588   0.23983931   0.81868531    1.3763196   0.18703926 
    5200         5139    976.37028    34.120625    242970.62  0.004766856    2.3852935    5.2783441   0.18300948   0.76101546    1.2498462   0.19142237 
    5250         5189    897.27275   0.43525283    242970.62  0.004766856    2.5453451    5.2040245   0.22585515   0.77435768    1.3144512   0.23068109 
    5300         5239    929.84808   0.27500655    242970.62  0.004766856    2.3478749    5.1030772   0.20430626   0.94069752    1.0365009    0.1663702 
    5350         5289    827.93379   -32.129714    242970.62  0.004766856    2.4822766       4.9355   0.18983238   0.97348357    1.1261509   0.19280977 
    5400         5339    779.98248   0.12265542    242970.62  0.004766856    2.4178246    4.7289651   0.21665368   0.95701547     1.032344   0.21181141 
    5450         5389     798.2281     11.68238    242970.62  0.004766856    2.2434359    4.6086394   0.22714415   0.92301174   0.89049888   0.20278115 
    5500         5439    810.80202   -34.872001    242970.62  0.004766856    2.2198519    4.6223127   0.17988961   0.99086112   0.86586968   0.18323144 
    5550         5489    876.93941   -22.147164    242970.62  0.004766856    2.2659149    4.8643452   0.19821458   0.91413442    0.9548293   0.19873655 
    5600         5539    888.22831   -42.578321    242970.62  0.004766856    2.5437496    5.1756297    0.1747498    1.0204539    1.1572689   0.19127688 
    5650         5589    906.59812    83.819929    242970.62  0.004766856    2.5851583    5.2714694   0.22565688   0.87093065    1.2311958   0.25737494 
    5700         5639    901.40525    3.4622838    242970.62  0.004766856    2.6248741    5.2957983   0.18560986   0.93762878    1.3053803   0.19625516 
    5750         5689     936.2656    62.745583    242970.62  0.004766856    2.4955285    5.2697463   0.18651428   0.84873995    1.2161398   0.24413443 
    5800         5739     920.5172     20.17323    242970.62  0.004766856     2.492893    5.2204472   0.17019457   0.82961714    1.3206468   0.17243443 
    5850         5789    953.44938   0.50080355    242970.62  0.004766856     2.299614    5.1247485   0.16823296   0.88681065     1.026163   0.21840736 
    5900         5839    884.07983   -28.249437    242970.62  0.004766856    2.4241406    5.0437285   0.18597356   0.85846026    1.1905355   0.18917124 
    5950         5889    798.43701    68.419116    242970.62  0.004766856    2.6149006     4.980723    0.2153568   0.90205524    1.2930302   0.20445833 
    6000         5939    787.90902   -56.782755    242970.62  0.004766856    2.6230531    4.9576804   0.20559458   0.95574527    1.2366719   0.22504134 
    6050         5989    886.41991    20.128251    242970.62  0.004766856    2.3748073     5.001329   0.19571863   0.90523195    1.0732172   0.20063947 
    6100         6039    885.62835   -82.115135    242970.62  0.004766856    2.5481252    5.1723014   0.20178722   0.88801961    1.2598173   0.19850104 
    6150         6089    1007.5749   -6.6656655    242970.62  0.004766856    2.3994959    5.3850081   0.20183151   0.71344187     1.276769    0.2074536 
    6200         6139    1033.2097    69.959738    242970.62  0.004766856    2.4418701    5.5033399   0.19740696    0.6541837     1.387466   0.20281345 
    6250         6189    1020.8424    53.062507    242970.62  0.004766856    2.4715969    5.4964216   0.18067287   0.70131388    1.3464903   0.24311987 
    6300         6239    980.04398   -13.662037    242970.62  0.004766856     2.507686    5.4116221   0.19717269   0.85328679    1.2777226   0.17950394 
    6350         6289     914.4441    57.321958    242970.62  0.004766856     2.545996    5.2555552   0.19209865   0.80325508    1.3450263   0.20561589 
    6400         6339     873.5801    30.530589    242970.62  0.004766856    2.5413373    5.1298138   0.19372458   0.79646633    1.3887917   0.16235468 
    6450         6389    870.36362    18.724896    242970.62  0.004766856     2.490174    5.0691199   0.18123641   0.82324262    1.2602699   0.22542514 
    6500         6439     863.1439    48.485588    242970.62  0.004766856    2.5128606    5.0704139   0.17299978   0.84263765     1.262622   0.23460114 
    6550         6489    904.03072   -98.976252    242970.62  0.004766856    2.3985571    5.0772609   0.16016768   0.84577523    1.1927177   0.19989657 
    6600         6539    1011.6208    56.964903    242970.62  0.004766856    2.1080491    5.1055494   0.20281258   0.70387064    1.0169157   0.18445025 
    6650         6589    907.74667   -74.515066    242970.62  0.004766856    2.4703011    5.1600154   0.15141083   0.86183587    1.2402087   0.21684568 
    6700         6639    967.23607     122.3521    242970.62  0.004766856    2.3648835    5.2308689   0.22249537   0.72992945    1.2043121    0.2081466 
    6750         6689    955.66897   -62.469887    242970.62  0.004766856    2.4987173    5.3304287   0.16243476   0.91909674    1.2281951   0.18899073 
    6800         6739      989.111   -32.114128    242970.62  0.004766856    2.5060616    5.4368639   0.19132105   0.86352619    1.2366218   0.21459257 
    6850         6789    957.87164   -10.685323    242970.62  0.004766856    2.7358125    5.5740504   0.25033463    1.0068214     1.239604   0.23905249 
    6900         6839    989.50398    7.9951848    242970.62  0.004766856     2.725091    5.6570577   0.15732483    1.0047567    1.4006498   0.16235968 
    6950         6889    964.25039   -22.020865    242970.62  0.004766856    2.7096153    5.5667539   0.21893557   0.94621301    1.3019913   0.24247545 
    7000         6939      972.486     86.44727    242970.62  0.004766856    2.4388611    5.3204025   0.23229287    0.8870501    1.0950076   0.22451061 
    7050         6989    868.77217   -57.850565    242970.62  0.004766856    2.5426534    5.1168836   0.17241906    0.8555848    1.3129224    0.2017271 
    7100         7039    898.88089    82.103134    242970.62  0.004766856    2.3600325    5.0234769   0.22669392   0.78647914    1.1311085   0.21575092 
    7150         7089    816.54259   -140.84562    242970.62  0.004766856    2.5972769    5.0167474    0.1915247    1.0012811    1.1867069   0.21776425 
    7200         7139    882.87627    132.05846    242970.62  0.004766856    2.4244665    5.0404881   0.22161231   0.94900873    1.0472291   0.20661633 
    7250         7189    831.72311   -96.343477    242970.62  0.004766856    2.6391239    5.1035753   0.18030121    1.0211715    1.2298806   0.20777056 
    7300         7239    869.80301    32.714881    242970.62  0.004766856    2.6446839    5.2219686   0.22239898    0.9679606    1.2530695   0.20125483 
    7350         7289    901.57754   -72.518327    242970.62  0.004766856    2.7101347    5.3815695   0.17389578     1.008564    1.3258327   0.20184221 
    7400         7339    1014.9593    81.023333    242970.62  0.004766856    2.5313074    5.5386999   0.22204752   0.89556002    1.2061763   0.20752363 
    7450         7389    972.32868   -57.687693    242970.62  0.004766856    2.7921541    5.6732292    0.1822235   0.94648543    1.4392992   0.22414594 
    7500         7439    1043.2841    37.116399    242970.62  0.004766856    2.6212258    5.7125467   0.22163978   0.93791338    1.3065632   0.15510946 
    7550         7489    979.98788    -2.083349    242970.62  0.004766856    2.5996409    5.5034107   0.18799759   0.98156823    1.1983728   0.23170225 
    7600         7539    933.63297    22.197823    242970.62  0.004766856    2.4361629    5.2025801   0.22333815   0.87621811    1.1390112   0.19759549 
    7650         7589    920.07522   -3.2328267    242970.62  0.004766856    2.3283076    5.0545522   0.19512469   0.79800252    1.1331853   0.20199505 
    7700         7639    882.67443    4.7400045    242970.62  0.004766856    2.3766854     4.992109   0.20596167   0.79507666    1.1620768   0.21357031 
    7750         7689    883.65844   -13.936031    242970.62  0.004766856    2.3543492    4.9726885    0.1967288    0.8249627    1.1315613   0.20109637 
    7800         7739    920.48854    2.8933823    242970.62  0.004766856    2.2695271    4.9969964   0.21818942   0.75254883     1.071185   0.22760385 
    7850         7789    904.22004   -23.091603    242970.62  0.004766856    2.4086734    5.0879381   0.21483976    0.7637055    1.1953686   0.23475958 
    7900         7839    861.03598    100.91289    242970.62  0.004766856      2.69482    5.2461274   0.27245738   0.91733876    1.2963641    0.2086598 
    7950         7889    833.00432    21.680061    242970.62  0.004766856    2.9346528    5.4029005   0.21912629    1.1826536    1.3247431   0.20812969 
    8000         7939    972.23621   -30.764414    242970.62  0.004766856    2.5988538    5.4796549   0.18934767    1.0462591     1.181088     0.182159 
    8050         7989    936.40948    55.047691    242970.62  0.004766856    2.6847361    5.4593803   0.23507114   0.99569164    1.2502335   0.20373988 
    8100         8039    914.89635   -78.315309    242970.62  0.004766856     2.557698    5.2685973   0.16622505   0.87540921    1.3010914   0.21497239 
    8150         8089    882.53885    74.625698    242970.62  0.004766856    2.3432375    4.9582593   0.22534285     0.749001    1.1539935   0.21490015 
    8200         8139    825.56692    17.896621    242970.62  0.004766856    2.3808784    4.8270886   0.23459028   0.75394795     1.185229   0.20711122 
    8250         8189    846.78589   -15.803783    242970.62  0.004766856    2.3153281    4.8244115   0.19146759   0.74581605     1.185767   0.19227746 
    8300         8239    848.12306     57.43688    242970.62  0.004766856    2.3868541    4.8998997   0.22159027   0.77675844    1.2093022   0.17920318 
    8350         8289    904.53021   -40.545791    242970.62  0.004766856    2.3513506    5.0315343   0.16596558   0.78475377    1.2141219   0.18650933 
    8400         8339    903.54024     7.331205    242970.62  0.004766856    2.5079601    5.1852104   0.21756591   0.81565686    1.2717228   0.20301451 
    8450         8389    918.02685    71.585028    242970.62  0.004766856    2.5794255    5.2996006   0.18844991    0.8330924    1.3634741   0.19440906 
    8500         8439    965.59107   -57.595491    242970.62  0.004766856    2.4965719    5.3576831   0.18959152   0.88467052    1.2240389   0.19827096 
    8550         8489    932.56754    62.840888    242970.62  0.004766856    2.5867907    5.3500509   0.23477636   0.89225435    1.2655772   0.19418276 
    8600         8539    899.26405   -63.584143    242970.62  0.004766856    2.6357401    5.3003199   0.19485417   0.87802807    1.3623817   0.20047617 
    8650         8589    854.28329    0.8772583    242970.62  0.004766856    2.6604566    5.1917553   0.24739034    0.8441327    1.3767676   0.19216591 
    8700         8639    907.44871    6.7113843    242970.62  0.004766856    2.2439325     4.932764   0.19035757   0.66466081     1.169517   0.21939718 
    8750         8689    845.20739    19.323636    242970.62  0.004766856    2.1511826    4.6555888   0.18708127   0.60668066    1.1612131   0.19620752 
    8800         8739    806.80018    3.5062948    242970.62  0.004766856     2.225818    4.6164211   0.20546044   0.67346277    1.1286271   0.21826769 
    8850         8789    803.04212   -30.303127    242970.62  0.004766856    2.3328389    4.7123066   0.17526928   0.78685863      1.18982   0.18089098 
    8900         8839    787.78132    24.157171    242970.62  0.004766856    2.5384782    4.8727271   0.17851541    0.7674752    1.3831429   0.20934471 
    8950         8889    864.58873    44.971122    242970.62  0.004766856    2.4812327    5.0430672   0.22738475   0.82934216     1.199579   0.22492684 
    9000         8939    888.72073   -27.107167    242970.62  0.004766856    2.5419983    5.1753375   0.16534782   0.99950932    1.1541755   0.22296568 
    9050         8989    970.63893    6.8165454    242970.62  0.004766856    2.3963916    5.2724599   0.19277267   0.74775535    1.2792094   0.17665419 
    9100         9039     1005.745    29.546272    242970.62  0.004766856    2.3291587    5.3092486   0.17654688    0.6886654    1.2592183   0.20472817 
    9150         9089     967.2435    17.224365    242970.62  0.004766856    2.4507075    5.3167149   0.18517122   0.74113518    1.3438519   0.18054923 
    9200         9139    928.19664   -10.559695    242970.62  0.004766856    2.5091624    5.2594714   0.22121075   0.80752254    1.2853441   0.19508504 
    9250         9189    922.40109   -14.538498    242970.62  0.004766856    2.3908638    5.1240002   0.19654538   0.88001605    1.1260201   0.18828229 
    9300         9239    808.50818   -18.748088    242970.62  0.004766856    2.5200788    4.9157428   0.19178257   0.85908632    1.2600241   0.20918582 
    9350         9289    777.90988  -0.82989618    242970.62  0.004766856    2.4679528     4.772952   0.18106514   0.88867054    1.2446862   0.15353085 
    9400         9339    732.36733    22.978509    242970.62  0.004766856    2.5647421    4.7347957   0.21498831   0.84866522    1.2964171   0.20467152 
    9450         9389    767.63177    14.279803    242970.62  0.004766856    2.5307793    4.8053238   0.20153784   0.74832429    1.3949232   0.18599396 
    9500         9439    843.71265    18.377572    242970.62  0.004766856    2.4467156    4.9466929   0.20597285   0.82163405    1.2127413   0.20636744 
    9550         9489    904.64961    18.010009    242970.62  0.004766856    2.3811617    5.0616992   0.18688374   0.69604018    1.3132138   0.18502396 
    9600         9539    852.07252   -25.660953    242970.62  0.004766856    2.5842213    5.1089694   0.17162131   0.80816984    1.3601244   0.24430577 
    9650         9589    879.81538    35.357741    242970.62  0.004766856    2.5395715    5.1465235   0.22654223   0.65021599    1.4443827   0.21843058 
    9700         9639      928.965    23.489793    242970.62  0.004766856    2.4328553     5.185441   0.18091288   0.67648084    1.3835448    0.1919168 
    9750         9689    922.92209    46.883275    242970.62  0.004766856     2.491511    5.2261911   0.22011516   0.71075578    1.3819903   0.17864972 
    9800         9739    865.30647   -15.414735    242970.62  0.004766856    2.6640659    5.2280271    0.2190748   0.93862415    1.2804718   0.22589514 
    9850         9789    899.52875    -49.60993    242970.62  0.004766856    2.5215299     5.186894   0.19835689    1.0050866    1.1533739   0.16471255 
    9900         9839    887.48368  -0.17447443    242970.62  0.004766856    2.4376073     5.067281   0.18861588   0.93386168    1.1053225   0.20980726 
    9950         9889    874.70558    28.683381    242970.62  0.004766856    2.3042208    4.8960322   0.18939336    0.8833986    1.0523402   0.17908862 
   10000         9939     816.5399   -23.914907    242970.62  0.004766856    2.3304428    4.7499053   0.18776784   0.79757679    1.1231151   0.22198304 
   10050         9989    849.91128    74.790107    242970.62  0.004766856    2.1930706    4.7114148   0.20516866   0.72860738    1.0731405   0.18615404 
   10100        10039    850.59078   -86.130973    242970.62  0.004766856    2.2527581    4.7731157   0.14946038   0.86652856    1.0240992   0.21266996 
   10150        10089    879.90363    54.714058    242970.62  0.004766856    2.3991738    5.0063873   0.19269466   0.70150092    1.2720953   0.23288291 
   10200        10139    874.82106    15.813483    242970.62  0.004766856    2.6602873    5.2524408   0.24389445   0.89206411    1.3131353   0.21119345 
   10250        10189    891.22516    17.436672    242970.62  0.004766856    2.6833117    5.3240717   0.25834607    0.9142049    1.2737002   0.23706055 
   10300        10239    873.04568    49.601629    242970.62  0.004766856    2.7277734    5.3146664   0.22787233   0.90901593    1.3720334   0.21885175 
   10350        10289    937.66878   -66.102711    242970.62  0.004766856    2.4741212    5.2524967   0.16599322   0.90428199    1.1838299   0.22001607 
   10400        10339    893.11486    65.444208    242970.62  0.004766856     2.507086    5.1534453   0.20527317   0.78787168    1.3220217   0.19191941 
   10450        10389    875.14491   -4.4440863    242970.62  0.004766856    2.4558634    5.0489765    0.2157064   0.84065248     1.167451   0.23205347 
   10500        10439    886.79395    -60.30128    242970.62  0.004766856    2.3238733    4.9515033   0.22798363   0.79276195    1.1052281   0.19789964 
   10550        10489    917.02904   -18.224191    242970.62  0.004766856    2.1548817    4.8721003   0.20903482   0.70825457   0.99325109    0.2443412 
   10600        10539    827.53606    14.394206    242970.62  0.004766856    2.3667493    4.8187943   0.20039419   0.72871826    1.2409467   0.19669022 
   10650        10589    833.21898    83.778144    242970.62  0.004766856    2.3287143     4.797598    0.2261595   0.69210861    1.1478184   0.26262772 
   10700        10639    812.45482   -73.365865    242970.62  0.004766856    2.4861426    4.8935008   0.21728458   0.80106508    1.2295162   0.23827681 
   10750        10689    911.52995    35.303594    242970.62  0.004766856    2.3914665    5.0923909   0.19443203   0.78137423    1.1811184   0.23454176 
   10800        10739    955.87061   -25.008206    242970.62  0.004766856    2.4491361    5.2814449   0.21303723    0.7512179    1.2984073   0.18647369 
   10850        10789    954.48322    19.888612    242970.62  0.004766856    2.5358281     5.364026   0.19672357   0.85368115    1.2481544     0.237269 
   10900        10839    952.97682    31.456088    242970.62  0.004766856     2.536587    5.3603213   0.25989933   0.70993377    1.3054734   0.26128052 
   10950        10889     977.4518    26.676467    242970.62  0.004766856    2.3907203    5.2869756   0.21577308   0.72703869    1.2323113   0.21559729 
   11000        10939    908.45973    11.865065    242970.62  0.004766856    2.4576203    5.1494474   0.18968613   0.74102682    1.3173959   0.20951146 
   11050        10989    842.87573    3.6918057    242970.62  0.004766856    2.4735236     4.971021   0.20118254   0.79705367    1.2799451   0.19534225 
   11100        11039    818.08129    44.758437    242970.62  0.004766856    2.4245333    4.8485631   0.17505884    0.7368318    1.3291541    0.1834885 
   11150        11089    792.47331   -29.653481    242970.62  0.004766856    2.4536585    4.8018102   0.18864836   0.74571202    1.3379254   0.18137272 
   11200        11139     843.0387    44.555304    242970.62  0.004766856    2.3408093    4.8387896   0.22478196   0.74723593    1.1892784   0.17951307 
   11250        11189    804.91426   -101.17105    242970.62  0.004766856    2.6057262    4.9907412   0.21179195    0.8959958    1.2955085    0.2024299 
   11300        11239    990.46644    54.341508    242970.62  0.004766856    2.4082517    5.3430703   0.20019349   0.82011941    1.2187985   0.16914033 
   11350        11289    1012.5023   -14.300328    242970.62  0.004766856    2.5136294    5.5137417   0.21368568   0.90345254    1.1820359   0.21445531 
   11400        11339    1015.8435    50.037384    242970.62  0.004766856    2.4511225     5.461135   0.21933002    0.7714123    1.2501744   0.21020578 
   11450        11389      920.987      35.4293    242970.62  0.004766856    2.5959807     5.324927   0.23055783   0.72722789    1.4275412   0.21065378 
   11500        11439    920.76714   -19.888413    242970.62  0.004766856    2.4290932    5.1573881   0.20640716   0.78665994    1.2226203   0.21340583 
   11550        11489    835.50878    7.5948389    242970.62  0.004766856    2.5496978    5.0253664   0.21964781   0.79516881    1.3338043   0.20107684 
   11600        11539    810.05859    42.954115    242970.62  0.004766856     2.537367     4.937625   0.23592264   0.84368987    1.2454216   0.21233283 
   11650        11589    903.89137    -18.81616    242970.62  0.004766856    2.2167794    4.8950702   0.22090903   0.75758569    1.0032816   0.23500305 
   11700        11639    875.50299    12.457086    242970.62  0.004766856    2.3328432    4.9270173   0.25437008   0.75812631    1.1332906   0.18705619 
   11750        11689    870.73313   -85.655076    242970.62  0.004766856    2.4451518    5.0251926   0.21181053    0.7516505    1.2586407    0.2230501 
   11800        11739    999.12851    53.259028    242970.62  0.004766856     2.275068    5.2355528   0.20469189    0.7038437    1.1496812   0.21685117 
   11850        11789    979.55931   -53.954689    242970.62  0.004766856    2.5393531     5.441853   0.17180238   0.87850486    1.2562614   0.23278439 
   11900        11839      988.412    64.100522    242970.62  0.004766856    2.5671152    5.4958463   0.21096326    0.6203146    1.4682779   0.26755936 
   11950        11889    972.63028    -45.10336    242970.62  0.004766856    2.5699795    5.4519483   0.20154749   0.76431097    1.3872218   0.21689921 
   12000        11939    978.40597   -33.127952    242970.62  0.004766856    2.4377199    5.3368024   0.17305133   0.80832364    1.2270818   0.22926314 
   12050        11989     877.2221   -3.1007841    242970.62  0.004766856    2.6434101    5.2426781   0.20266369     0.918215    1.2929211   0.22961035 
   12100        12039    921.27472    25.138316    242970.62  0.004766856    2.4479319    5.1777308   0.20377101   0.76271434    1.2473785   0.23406805 
   12150        12089     887.0314   -7.2156717    242970.62  0.004766856    2.5058186    5.1341522   0.20036411   0.79281612    1.2813005   0.23133786 
   12200        12139    894.62777    42.064592    242970.62  0.004766856    2.4364967    5.0873388   0.20284565    0.7764973    1.2240782    0.2330756 
   12250        12189     921.6056   -1.6261266    242970.62  0.004766856    2.3205419    5.0513212   0.19005773   0.77234046    1.1443884   0.21375531 
   12300        12239    883.24691   -19.009058    242970.62  0.004766856    2.4008186    5.0179385   0.19814807   0.72337775     1.262365   0.21692777 
   12350        12289    928.67573   -32.511071    242970.62  0.004766856    2.2316185     4.983347   0.22011062   0.67063505    1.0985012   0.24237156 
   12400        12339    824.54454   -45.064137    242970.62  0.004766856    2.5257428    4.9689236   0.18614766   0.88785005    1.2593799   0.19236522 
   12450        12389    897.80442    23.247268    242970.62  0.004766856    2.3382373    4.9984921     0.236718   0.76660613    1.1008137   0.23409953 
   12500        12439    903.67666    54.997417    242970.62  0.004766856    2.4333766    5.1110312   0.22038411   0.82037965    1.2354716   0.15714126 
   12550        12489    894.25963   -66.156467    242970.62  0.004766856    2.5850154    5.2347667   0.18931352   0.90373372    1.2687632   0.22320492 
   12600        12539    927.69747    50.399409    242970.62  0.004766856    2.6109174    5.3597473   0.25726465   0.82396149    1.3156933   0.21399801 
   12650        12589     908.6174   -45.353324    242970.62  0.004766856    2.7147548    5.4070492   0.18634703   0.86389989    1.4296191   0.23488884 
   12700        12639     942.6158    72.757715    242970.62  0.004766856    2.5780121     5.371046   0.26252714   0.82550156    1.2716909   0.21829244 
   12750        12689     869.8247    2.3715988    242970.62  0.004766856    2.6515218    5.2288708   0.21188392   0.84536961    1.3459747   0.24829361 
   12800        12739    902.81803    40.536607    242970.62  0.004766856    2.3517431    5.0268535   0.16993028    0.7471838    1.2295702   0.20505883 
   12850        12789    843.55207   -47.038442    242970.62  0.004766856    2.3806545    4.8801559   0.18808765   0.73295642    1.2639022   0.19570814 
   12900        12839    853.48931    36.015481    242970.62  0.004766856    2.3104789    4.8394251   0.20610691   0.71500822     1.185793   0.20357077 
   12950        12889     828.5494   -52.212279    242970.62  0.004766856    2.4209025      4.87595   0.18337548   0.71996522    1.2997971   0.21776467 
   13000        12939    863.74961    27.278553    242970.62  0.004766856    2.4084325    4.9677805   0.19417855   0.73382307    1.2818248   0.19860604 
   13050        12989    850.95603    18.043718    242970.62  0.004766856    2.5415311    5.0629709   0.20147414   0.75351683     1.393428    0.1931121 
   13100        13039    914.77284   -61.037245    242970.62  0.004766856    2.4022037     5.112737   0.19159745   0.79973854    1.2108664   0.20000136 
   13150        13089    893.18595    99.269247    242970.62  0.004766856    2.4903739    5.1369438   0.22478629   0.72400874    1.3374618   0.20411703 
   13200        13139    861.15892   -12.667308    242970.62  0.004766856    2.5999383      5.15161   0.21111185   0.83170255    1.3511399   0.20598404 
   13250        13189    930.80912    54.952714    242970.62  0.004766856    2.3931158    5.1511657   0.22086168   0.85946222    1.1232867   0.18950522 
   13300        13239    838.76554   -63.336657    242970.62  0.004766856    2.6537498    5.1390684   0.21207023   0.94523729    1.2869804    0.2094619 
   13350        13289    907.01562    44.755202    242970.62  0.004766856    2.4223924    5.1099406   0.21427428   0.80438879    1.2122227   0.19150666 
   13400        13339    888.19725   -96.997491    242970.62  0.004766856    2.4232099    5.0549979   0.18819385    0.8490563    1.1877519   0.19820777 
   13450        13389    860.27459    71.558612    242970.62  0.004766856     2.390356    4.9394074   0.21668749   0.69679351    1.2592072   0.21766786 
   13500        13439    840.23218   -55.453607    242970.62  0.004766856    2.3350747    4.8247391   0.16086791   0.79452704    1.2042407   0.17543904 
   13550        13489    840.75917    25.428975    242970.62  0.004766856    2.2682905    4.7595164   0.18663922   0.74321885    1.1470923   0.19134014 
   13600        13539    841.90787   -14.460848    242970.62  0.004766856    2.3027294     4.797359   0.16819414   0.68549243    1.2469674   0.20207545 
   13650        13589    905.56895    19.324088    242970.62  0.004766856    2.2706429    4.9539045   0.20101184   0.66961667    1.2135532    0.1864612 
   13700        13639    889.49777   -20.608941    242970.62  0.004766856    2.5473696    5.1830112   0.15820181   0.98110531    1.1896531   0.21840939 
   13750        13689    887.33181    15.622563    242970.62  0.004766856    2.7056045    5.3348282   0.23173594   0.88590415    1.4061169   0.18184742 
   13800        13739    924.95695   -59.798751    242970.62  0.004766856    2.6218587    5.3625682   0.19520426     0.921474    1.2992882   0.20589218 
   13850        13789    955.80258    31.840678    242970.62  0.004766856     2.492872    5.3249792   0.19072075   0.89066227    1.2187823   0.19270674 
   13900        13839    878.50202   -30.103624    242970.62  0.004766856     2.630976    5.2340365   0.20034309   0.80893643    1.4036073   0.21808918 
   13950        13889     938.6307    98.517973    242970.62  0.004766856    2.3429254    5.1241512   0.20585189    0.7928125    1.1507077   0.19355339 
   14000        13939    862.05276   -66.710926    242970.62  0.004766856    2.4682101    5.0225303   0.17623104   0.67698301    1.3847743   0.23022174 
   14050        13989    899.99881     40.54473    242970.62  0.004766856    2.2956787    4.9624356   0.22234166   0.67778698    1.1680646   0.22748551 
   14061        14000    879.45444    25.426915    242970.62  0.004766856    2.3468061    4.9526887   0.19092086   0.71066514    1.2367489   0.20847123 
Loop time of 1.40351 on 8 procs for 10000 steps with 168 atoms

Performance: 615.599 ns/day, 0.039 hours/ns, 7124.986 timesteps/s
99.9% CPU use with 8 MPI tasks x no OpenMP threads

MPI task timing breakdown:
Section |  min time  |  avg time  |  max time  |%varavg| %total
---------------------------------------------------------------
Pair    | 0.012207   | 0.069301   | 0.21427    |  23.7 |  4.94
Bond    | 0.049065   | 0.18701    | 0.44702    |  29.8 | 13.32
Kspace  | 0.55244    | 0.88945    | 1.0466     |  16.6 | 63.37
Neigh   | 0.03411    | 0.034339   | 0.034491   |   0.1 |  2.45
Comm    | 0.10732    | 0.15893    | 0.18745    |   6.4 | 11.32
Output  | 0.014002   | 0.014242   | 0.015855   |   0.5 |  1.01
Modify  | 0.023224   | 0.040914   | 0.059909   |   5.8 |  2.92
Other   |            | 0.009322   |            |       |  0.66

Nlocal:        21.0000 ave          41 max          14 min
Histogram: 4 1 1 0 0 1 0 0 0 1
Nghost:        98.0000 ave         125 max          73 min
Histogram: 1 1 1 0 1 1 0 2 0 1
Neighs:        177.500 ave         392 max          56 min
Histogram: 2 0 2 2 0 0 1 0 0 1

Total # of neighbors = 1420
Ave neighs/atom = 8.4523810
Ave special neighs/atom = 9.1428571
Neighbor list builds = 594
Dangerous builds = 12
System init for write_data ...
PPPM initialization ...
  using 12-bit tables for long-range coulomb (../kspace.cpp:340)
  G vector (1/distance) = 0.077713503
  grid = 4 4 4
  stencil order = 5
  estimated absolute RMS force accuracy = 0.033197132
  estimated relative force accuracy = 9.9972176e-05
  using double precision KISS FFT
  3d grid and FFT values/proc = 343 8
PPPM initialization ...
  using 12-bit tables for long-range coulomb (../kspace.cpp:340)
  G vector (1/distance) = 0.077713503
  grid = 4 4 4
  stencil order = 5
  estimated absolute RMS force accuracy = 0.033197132
  estimated relative force accuracy = 9.9972176e-05
  using double precision KISS FFT
  3d grid and FFT values/proc = 343 8
Setting up Verlet run ...
  Unit style    : real
  Current step  : 14061
  Time step     : 1
Per MPI rank memory allocation (min/avg/max) = 11.96 | 12.19 | 12.42 Mbytes
Step Time Temp Press Volume Density PotEng TotEng E_pair E_bond E_angle E_dihed 
   14061        14000    879.45444    25.426915    242970.62  0.004766856    2.3468061    4.9526887   0.19092086   0.71066514    1.2367489   0.20847123 
   14100        14039    866.92456    1.6757317    240081.19 0.0048242263    2.3938588    4.9626144   0.19992046    0.7295077    1.2733684    0.1910622 
   14150        14089    866.39992    47.721161    229064.42 0.0050562457    2.4323515    4.9995526   0.21639992   0.83853243    1.1434064   0.23401275 
   14200        14139     882.5559   -17.511905    214142.12 0.0054085856    2.4063891    5.0214615   0.21763184   0.79809096    1.1785583   0.21210808 
   14250        14189    824.67009   -65.025705    199838.53 0.0057957089    2.6074732    5.0510261   0.20822092   0.92411912    1.2747934    0.2003398 
   14300        14239    843.42358    122.62172     187784.4 0.0061677432    2.5685243     5.067645   0.23654982   0.89482112    1.2626034   0.17454996 
   14350        14289    845.78831   -95.372143     177392.6 0.0065290546    2.5755498    5.0816774   0.18387239   0.91005977    1.2998946   0.18172306 
   14400        14339    930.20754    235.31971    167798.95 0.0069023434    2.3143284    5.0705958   0.22683837   0.70201748    1.2198493   0.16562328 
   14450        14389    897.75768   -73.286121    158896.77 0.0072890465    2.4264796    5.0865959   0.13040366   0.81884567    1.2916953   0.18553501 
   14500        14439    956.54425    117.96959    150503.18  0.007695558    2.2384385    5.0727433   0.21897135   0.68825035    1.1713609   0.15985584 
   14550        14489    907.79603   -11.615645     142967.2 0.0081012008    2.3917396    5.0816002   0.19447362   0.77834329    1.2128434   0.20607933 
   14600        14539    927.90338    90.968447    136002.11  0.008516088     2.342442     5.091882   0.21546395   0.75615588    1.1640682   0.20675396 
   14650        14589    916.11029   -116.22766    129699.17 0.0089299413    2.3658878    5.0803841   0.18240608   0.83210392    1.1712307   0.18014708 
   14700        14639    893.99352    72.035237    123816.95 0.0093541795     2.436811    5.0857738   0.20843913   0.80786479    1.2013145    0.2191926 
   14750        14689    914.35771   -63.554217    118391.13 0.0097828776    2.3614957     5.070799   0.16677125   0.88092557    1.1158882   0.19791066 
   14800        14739    929.60598   -169.42179    113346.96  0.010218236    2.3166513    5.0711363   0.18418549    0.9264233    1.0195819   0.18646062 
   14850        14789    947.77715    16.152034    108619.23  0.010662992    2.2404154    5.0487427   0.21733401   0.81430657    1.0504483   0.15832654 
   14900        14839    909.45293   -21.350802    104229.21  0.011112105    2.3414457    5.0362158    0.1874492   0.74242163    1.2101964   0.20137847 
   14950        14889    921.65044   -108.62667    100092.24  0.011571386    2.2831333    5.0140455   0.18935553   0.80715329    1.1124337    0.1741908 
   15000        14939    959.73889     258.9223    96215.997  0.012037561    2.1650896    5.0088603   0.21352832   0.67149951    1.0993928   0.18066895 
   15050        14989    930.08625   -363.48241    92589.084  0.012509099    2.2306307    4.9865387   0.15723339   0.74945986    1.1114144   0.21252303 
   15100        15039    897.67262    246.47836    89149.742  0.012991692    2.3225988     4.982463   0.21171373   0.73631322    1.1609487   0.21362317 
   15150        15089    876.14511   -100.84562    85923.304  0.013479532    2.3734454    4.9695222   0.17749227   0.77417169    1.2442353   0.17754617 
   15200        15139    939.35833    128.96911     82891.36  0.013972578    2.1710468    4.9544286   0.14954466   0.73307617    1.0945302   0.19389579 
   15250        15189    903.31348    231.54024    79986.854  0.014479954    2.2666162    4.9431947   0.20770278   0.70429001    1.1729795    0.1816439 
   15300        15239    847.70172   -10.645539    77305.074  0.014982276     2.439906    4.9517031   0.18559854   0.70147805    1.3169193   0.23591017 
   15350        15289    938.13119    150.50772    74715.176  0.015501616    2.1608037    4.9405494   0.23395076   0.66295816    1.0766451   0.18724977 
   15400        15339    821.68364   -278.43838    72339.699  0.016010655      2.50229    4.9369938   0.19598213   0.89572069    1.2064432   0.20414401 
   15450        15389    832.99957    113.17494    70066.824   0.01653002    2.4507439    4.9189775   0.22227347   0.79193674     1.192177   0.24435667 
   15500        15439    854.79691   -60.292713    67922.928  0.017051768    2.3749471    4.9077678   0.17535084   0.81732152    1.2033834   0.17889136 
   15550        15489    906.39161    32.389826    65850.078  0.017588528    2.2141112    4.8998104   0.20213223   0.71519028    1.0810416   0.21574709 
   15600        15539    886.77175   -34.945224    63912.967  0.018121612    2.2616386    4.8892028   0.18624649   0.64194305    1.2715944   0.16185464 
   15650        15589      853.574    135.95959    62036.673  0.018669698    2.3403968    4.8695939   0.22600419   0.69564627    1.1387951   0.27995129 
   15700        15639    850.77811     179.6471    60264.154  0.019218821    2.3381827    4.8590954   0.18965645   0.71062404    1.2178374   0.22006477 
   15750        15689    811.96749   -35.748689    58565.446  0.019776268    2.4603745    4.8662887   0.22499525   0.74963691    1.2651153   0.22062708 
   15800        15739     901.8168    155.95162    56951.279  0.020336786    2.1693788    4.8415225   0.19288928   0.66991213    1.0791193   0.22745809 
   15850        15789    834.31679    56.050295    55432.135  0.020894125    2.3656916    4.8378283   0.18839271   0.60582801    1.3440135    0.2274574 
   15900        15839    912.19302    355.23618    53964.967  0.021462182    2.1173693    4.8202584   0.20526828   0.65113731    1.0702498   0.19071392 
   15950        15889    872.29946   -282.53556    52586.939  0.022024594    2.2162332    4.8009151     0.175885   0.67834334    1.1453053   0.21669958 
   16000        15939    887.69527    295.86622    51225.606  0.022609903    2.1552555    4.7855562   0.18747692   0.66685878    1.0995797   0.20134013 
   16050        15989    869.04595    155.93155    49936.769   0.02319345    2.1934787    4.7685201   0.21079661    0.6324425    1.1651707   0.18506884 
   16100        16039     841.2423    242.42207    48712.821  0.023776204    2.2599896     4.752647   0.15621728   0.67617449     1.211304   0.21629381 
   16150        16089    909.41676    223.25739    47519.629  0.024373212    2.0422622    4.7369252   0.17076332   0.75872619   0.95076054   0.16201219 
   16200        16139    859.07454    8.3741208    46416.944  0.024952224    2.1782954    4.7237909    0.1893446   0.74211499     1.022176   0.22465981 
   16250        16189    884.44719    86.844389    45380.458   0.02552213    2.0921675    4.7128439   0.15769321   0.65740375    1.0776734   0.19939713 
   16300        16239    865.89266      111.157    44354.539  0.026112457    2.1228793    4.6885773   0.19767938   0.59549695    1.1587426   0.17096033 
   16350        16289    810.18546    84.447507    43376.939  0.026700962    2.2687775    4.6694114   0.15413715   0.64106622    1.2737108    0.1998633 
   16400        16339    861.84574    321.17489     42405.04  0.027312932     2.118333    4.6720398   0.20130246   0.69686359    1.0345571   0.18560986 
   16450        16389    880.47355    -191.7964    41483.357  0.027919775    2.0432368     4.652139   0.17645084   0.77667343   0.91705792   0.17305461 
   16500        16439    852.82084    179.00735     40595.44  0.028530445     2.120698    4.6476634    0.1744063   0.70780546    1.0342809   0.20420538 
   16550        16489     858.7805    93.664294    39713.439  0.029164081    2.0860771    4.6307014   0.19966473   0.71506046    1.0037237   0.16762824 
   16600        16539    792.15403    257.13398    38893.014   0.02977928    2.2688182    4.6160238   0.17586474    0.6995127    1.1697184   0.22372243 
   16650        16589    784.58638    251.47861    38084.307  0.030411633    2.2773353    4.6021174   0.22758386   0.77738458    1.0572519   0.21511498 
   16700        16639    876.85591   -268.05068    37317.974  0.031036142    1.9836984    4.5818813   0.16750892   0.67446926   0.93252081   0.20919938 
   16750        16689    869.40486    48.121698    36577.367  0.031664553    1.9915879    4.5676929   0.17172068    0.6506268     1.025067   0.14417339 
   16800        16739    834.76722   -51.082845    35859.179  0.032298731    2.0801366     4.553608   0.20871631   0.69109957   0.96489166   0.21542911 
   16850        16789    850.98735    695.10031    35192.823  0.032910289    2.0195973    4.5411299   0.19459859   0.59882427     1.048737   0.17743748 
   16900        16839    823.32746   -387.85106    34554.061  0.033518664    2.0943821    4.5339566   0.14546706   0.70348954    1.0830222   0.16240332 
   16950        16889    899.18734    520.81531    33920.507  0.034144713     1.845676    4.5100284   0.18449214   0.66497832   0.80222749   0.19397802 
   17000        16939    853.01691   -579.47067    33319.426  0.034760682    1.9671253    4.4946717    0.1140993   0.71317085   0.99169525   0.14815992 
   17050        16989    826.23084    538.31997     32709.24  0.035409138      2.03698    4.4851574   0.17373247   0.65704775   0.99512629   0.21107349 
   17100        17039    857.57475    101.66609    32130.057   0.03604743      1.93004    4.4710915   0.16579773   0.69993686   0.88416589   0.18013948 
   17150        17089    797.97353    112.78033    31577.559  0.036678135    2.0999933    4.4644424   0.16560052   0.78338248   0.96842175   0.18258851 
   17200        17139    835.19826    393.44537    31049.985  0.037301338    1.9688604    4.4436089    0.1752873   0.68923734   0.91179144   0.19254432 
   17250        17189    828.45181   -234.06218    30555.937   0.03790445    1.9717687     4.426527   0.18372618   0.65263484     0.961355   0.17405267 
   17300        17239    840.77493    234.72505    30070.411  0.038516467    1.9211244     4.412397   0.17487156   0.55374465    1.0047921   0.18771604 
   17350        17289    806.41001    261.15485    29596.154  0.039133665    2.0122143    4.4016613   0.19877298   0.60890564   0.99788173   0.20665392 
   17400        17339    849.81236   -771.87328    29138.352  0.039748507    1.8631694    4.3812205   0.11014817   0.68246742   0.95005115   0.12050264 
   17450        17389    791.67128    422.09597    28663.591   0.04040687    2.0253146    4.3710897   0.18306381   0.64556484   0.96843706   0.22824888 
   17500        17439    793.92494    610.99989    28206.632  0.041061477    2.0104187    4.3628716    0.1631309   0.70466338   0.95183994   0.19078451 
   17550        17489      804.639   -196.71006    27763.081  0.041717487    1.9773651    4.3615644   0.13126007   0.68391658   0.99081966   0.17136877 
   17600        17539    792.46025     738.8815    27317.318  0.042398231    1.9995589    4.3476719   0.17208341   0.60204091    1.0968168   0.12861784 
   17650        17589    802.68217   -721.81452    26902.815  0.043051479    1.9458696    4.3242707   0.14249229   0.61228781     1.005545   0.18554443 
   17700        17639    832.10832    720.40795    26485.736  0.043729424    1.8358631     4.301456   0.17425373   0.51006198    1.0003032    0.1512442 
   17750        17689    787.25446   -231.58498    26097.293  0.044380311    1.9658343    4.2985222   0.16146548   0.61328345   0.99339436   0.19769104 
   17800        17739    769.33831    303.15466    25732.909  0.045008747     2.032345     4.311946   0.19946531   0.64546363    1.0186027   0.16881337 
   17850        17789    805.78171   -534.32905    25378.151  0.045637919    1.9197457     4.307331    0.1570641   0.68378051   0.90321597   0.17568513 
   17900        17839    770.11552    22.950739    25030.258  0.046272235    2.0212684    4.3031724   0.14954973   0.63141216    1.0137204   0.22658617 
   17950        17889    806.91229    169.78912    24674.484   0.04693942    1.9000066    4.2909418   0.16158149   0.67687235    0.8740608   0.18749192 
   18000        17939     788.7864    81.346326    24335.121   0.04759401    1.9491351    4.2863621   0.19185732   0.69020192   0.89089899   0.17617684 
   18050        17989    767.82846   -157.65157    24001.458  0.048255651    2.0010902    4.2762175   0.14943792   0.68276219   0.99401774   0.17487234 
   18100        18039    802.83321     1101.489    23675.128  0.048920791    1.8856455    4.2644942   0.17540737   0.59959731    0.9401962   0.17044461 
   18150        18089    775.52541   -556.04115    23357.905  0.049585181    1.9619145    4.2598484    0.1490121   0.68427151   0.97311181   0.15551911 
   18200        18139    785.12801    316.75738    23045.825   0.05025665    1.9208472    4.2472342   0.13604808   0.65231653   0.95129187   0.18119074 
   18250        18189     771.0963    145.14065     22734.39  0.050945109    1.9518606    4.2366707    0.1807232    0.5701028    1.0276243   0.17341028 
   18300        18239    800.38904    256.42055    22436.716   0.05162101    1.8657783    4.2373847   0.13944095   0.56812195    1.0070011    0.1512143 
   18350        18289    792.44864    344.22002    22136.584  0.052320898    1.8755069    4.2235855   0.19774696   0.60317599   0.89341597   0.18116803 
   18400        18339     755.4965   -75.654164     21851.07  0.053004543    1.9808558    4.2194426   0.15238289   0.68755227   0.98997258   0.15094805 
   18450        18389    777.61002     268.6059    21566.426  0.053704122    1.9061894    4.2103001   0.16181077   0.69714364   0.89634018   0.15089483 
   18500        18439    764.75227    157.38284    21285.255  0.054413535    1.9381973    4.2042096   0.18761698    0.5869043     1.024278   0.13939799 
   18550        18489    733.07063    115.79104     21021.15  0.055097175    2.0237755     4.195913   0.17644712   0.63297022    1.0197037    0.1946545 
   18600        18539    779.27324    -249.0515    20753.518  0.055807694     1.863793     4.172832   0.15651772   0.56019217    1.0121079   0.13497525 
   18650        18589    752.24464    692.11187    20499.541  0.056499117    1.9467914    4.1757428   0.16211487   0.57706251    1.0442217   0.16339237 
   18700        18639    718.06532   -408.50398    20252.225  0.057189074    2.0357223     4.163398   0.13996661     0.622808    1.0831121    0.1898356 
   18750        18689    720.78552    244.60137    20002.589  0.057902803    2.0236398    4.1593757   0.15931435   0.61954099     1.078858   0.16592644 
   18800        18739    723.19414    -234.8618    19766.478  0.058594453    2.0073389    4.1502117   0.16460779   0.71876041   0.99158123   0.13238951 
   18850        18789    775.27091    225.35315    19536.973  0.059282776    1.8348587    4.1320384   0.13286405   0.59175383   0.96411627   0.14612452 
   18900        18839    753.35222    480.08399    19318.094  0.059954463    1.8946632    4.1268964   0.19440201   0.55848877   0.99565069   0.14612169 
   18950        18889    753.94178    648.87708    19130.313  0.060542971    1.8834297    4.1174098   0.12322967    0.6823036    0.9030516   0.17484481 
   19000        18939    706.81155    -479.1056    18939.427  0.061153167    2.0108217    4.1051518   0.18398566   0.61608391    1.0163126   0.19443953 
   19050        18989    758.91959    812.90835    18766.196  0.061717675    1.8570969    4.1058266   0.18481346   0.63377423   0.91649342    0.1220158 
   19100        19039    730.16027       69.496    18599.628  0.062270385    1.9322036    4.0957175   0.17097312   0.63775683   0.95893114   0.16454246 
   19150        19089    736.89632    1354.5486    18437.502  0.062817944    1.8908172    4.0742904   0.16564864   0.63110729   0.91761765    0.1764436 
   19200        19139    729.39667   -831.64298    18284.213  0.063344591    1.9053698    4.0666211   0.10446882    0.6164196    1.0091123   0.17536909 
   19250        19189    712.22697    1588.9674    18112.371  0.063945576    1.9557301    4.0661065   0.21439308   0.58377486    0.9689615   0.18860069 
   19300        19239    691.64843   -652.73161    17960.262  0.064487141    2.0100031    4.0594039    0.1200048   0.65991784    1.0540572   0.17602333 
   19350        19289     769.8766    1726.2843     17795.93  0.065082632    1.7703206    4.0515167   0.15384538   0.56599313   0.86915476   0.18132735 
   19400        19339    733.49069   -750.76773    17637.606  0.065666847    1.8591139    4.0324961   0.14035295   0.60051062   0.94909481   0.16915554 
   19450        19389    755.68514    657.04235    17472.729  0.066286496    1.7799205    4.0190663   0.15455007   0.59695327   0.84948775    0.1789294 
   19500        19439    743.49056   -210.11707    17297.442  0.066958221    1.8270149    4.0300274   0.17736316   0.58253326   0.90539177   0.16172673 
   19550        19489    736.48951   -217.75747    17123.613  0.067637944     1.836662    4.0189299   0.14302659   0.58930649   0.90073057   0.20359839 
   19600        19539    759.83889   -532.18486    16948.349  0.068337393    1.7701075    4.0215611   0.14473521   0.64761148   0.76158424   0.21617656 
   19650        19589    737.20611   -99.337932    16767.186  0.069075752    1.8304552    4.0148464   0.18378934     0.598055   0.86157741   0.18703347 
   19700        19639    744.93075   -163.98849    16594.721   0.06979364    1.8004034    4.0076833   0.13555951   0.63472766   0.83692269   0.19319356 
   19750        19689    754.30644     1239.097    16412.029  0.070570553    1.7709451    4.0060057   0.19415781   0.55296245   0.81068328   0.21314157 
   19800        19739    743.37714   -319.92931    16245.334  0.071294685    1.8017295    4.0044058   0.15059236   0.65686256   0.83353395    0.1607406 
   19850        19789    772.18246    377.11991    16084.999  0.072005348    1.7028568    3.9908853   0.13936078   0.59107294   0.79267697   0.17974614 
   19900        19839     696.2304    32.237436    15927.699  0.072716465    1.9177961    3.9807735   0.18930784   0.57172315   0.98915719   0.16760793 
   19950        19889    738.75835    581.17618     15777.55  0.073408481    1.7844035    3.9733941   0.14848084   0.60237742    0.8736666   0.15987865 
   20000        19939    686.42606    350.73916    15628.438  0.074108875    1.9256441    3.9595706   0.16209585   0.65937325   0.91987679   0.18429819 
   20050        19989    716.77022   -13.587239    15485.878  0.074791106    1.8365298    3.9603681   0.16719853   0.59918379   0.87900622   0.19114125 
   20100        20039    704.64487    76.140935    15346.542   0.07547016    1.8610068    3.9489168   0.15248783   0.66964309   0.83589732   0.20297855 
   20150        20089    689.01649   -135.41366    15202.642  0.076184517    1.8996678    3.9412699   0.17751066   0.67453601   0.84304145   0.20457969 
   20200        20139    722.04049    829.27826    15065.829  0.076876351    1.7983115    3.9377659   0.15611364   0.61542741     0.827876   0.19889441 
   20250        20189    725.75589   -105.73659    14927.743  0.077587478    1.7895527    3.9400162   0.16676367   0.65838849   0.79657165   0.16782893 
   20300        20239    678.71004    168.78013    14792.448  0.078297112    1.9100979    3.9211613   0.17764575   0.59953912   0.96333267   0.16958039 
   20350        20289    758.59841    212.86242    14663.935  0.078983298    1.6487707    3.8965487   0.13404555   0.56795237   0.79677134   0.15000141 
   20400        20339    673.18908   -298.00176    14530.556  0.079708306    1.8977457    3.8924501   0.17239447   0.64987184   0.86887494   0.20660443 
   20450        20389    703.74774    1117.3534    14401.512  0.080422525    1.8124972    3.8977489   0.18149935   0.60668813   0.81310246   0.21120722 
   20500        20439    701.55136   -340.35662    14276.253  0.081128146    1.8027778    3.8815216   0.15649909   0.67871985   0.81229241   0.15526644 
   20550        20489    652.08186    625.27309    14149.829     0.081853    1.9514633    3.8836256   0.19891357   0.70402766   0.83386807   0.21465397 
   20600        20539    685.01166   -58.547353    14032.351  0.082538271    1.8387118    3.8684473   0.16226817   0.72954062   0.77880681   0.16809623 
   20650        20589    714.36598    290.08286    13914.282  0.083238642    1.7329271    3.8496415   0.14647276   0.63393557   0.80638074   0.14613805 
   20700        20639    715.36078   -622.52894    13790.552  0.083985466    1.7107846    3.8304466   0.13856376   0.59648982   0.78649773   0.18923329 
   20750        20689    738.42092    33.808443    13671.149  0.084718994    1.6350099    3.8230007   0.14945746   0.50716962   0.80952893   0.16885392 
   20800        20739    722.00434   -658.01979    13557.213  0.085430979    1.6655248    3.8048722   0.15946013   0.55730349    0.7827151   0.16604611 
   20850        20789    673.52501    921.71825    13446.289  0.086135736    1.7953109    3.7910107   0.16334146   0.61828358   0.80346005   0.21022583 
   20900        20839    667.96568   -880.65496    13337.452  0.086838625    1.8202323    3.7994594   0.16833552   0.64141583   0.79994175   0.21053918 
   20950        20889    686.85084    722.82982     13235.02  0.087510707    1.7705629     3.805748   0.13300507   0.65672981   0.81884087   0.16198715 
   21000        20939    622.21922    375.60827    13121.936  0.088264867    1.9422962    3.7859736   0.18429229   0.65993774   0.88971241   0.20835379 
   21050        20989    662.29199    100.30218    13012.725  0.089005645    1.8215008    3.7839165   0.13829465   0.63743124   0.84990964   0.19586532 
   21100        21039    626.81176    502.57362     12896.09   0.08981063    1.9228283    3.7801136   0.18794829    0.7047954   0.84044583   0.18963878 
   21150        21089    646.78075   -207.44901    12782.432  0.090609204     1.856933    3.7733878   0.16360463   0.64716124   0.86030903   0.18585812 
   21200        21139    684.10229    340.01207    12671.704  0.091400968    1.7332076    3.7602486    0.1469164    0.6413107   0.76232123    0.1826593 
   21250        21189    707.04174   -489.34402    12560.697  0.092208732      1.65836    3.7533722   0.13467935   0.54019819   0.79912318   0.18435931 
   21300        21239    675.47221    212.61201    12450.578  0.093024277    1.7363023    3.7377718   0.17852999   0.52062401   0.80738429   0.22976402 
   21350        21289    691.58736    449.57974    12349.293  0.093787227     1.694746    3.7439658   0.12467036   0.51107301   0.86037311   0.19862955 
   21400        21339     655.8477     145.1617    12250.654   0.09454238    1.8053177    3.7486384   0.17205795   0.54781197   0.84794807   0.23749969 
   21450        21389    650.57877    369.89713    12154.177  0.095292832    1.8090111    3.7367197   0.17160435   0.61389582   0.80466716   0.21884378 
   21500        21439    671.66235   -878.90612    12056.801  0.096062461    1.7491151    3.7392957   0.14903207    0.6372757   0.79338282   0.16942449 
   21550        21489     648.3846    19.536062    11957.854  0.096857347    1.8013856    3.7225927   0.16997361   0.62565062   0.80412833   0.20163307 
   21600        21539    623.45579    13.465922    11861.451  0.097644546    1.8562011    3.7035425   0.18175643   0.64680702   0.83439741   0.19324029 
   21650        21589    656.62003    669.81345    11769.756  0.098405265    1.7497938    3.6954031   0.15320836   0.59406016   0.79326063   0.20926469 
   21700        21639    682.99626    159.95642    11682.448  0.099140695    1.6742124    3.6979762   0.18062131   0.53937517   0.80338744   0.15082846 
   21750        21689    660.99768   -885.92698    11598.554  0.099857792    1.7328685     3.691449   0.15946152   0.65164209   0.72655298   0.19521194 
   21800        21739    669.92151   -788.73992    11511.367   0.10061411    1.6965204    3.6815428   0.16513952   0.59967175   0.76888738   0.16282172 
   21850        21789    659.68328    1248.6742    11424.474   0.10137937    1.7224973    3.6771831   0.18213343   0.68332911   0.67257937   0.18445537 
   21900        21839    686.90777    664.07241    11346.129    0.1020794    1.6187873    3.6541412   0.13326515   0.57848722   0.72869449   0.17834047 
   21950        21889    694.90044    46.295454    11267.951   0.10278763    1.5825634    3.6416001   0.12793968   0.58125653   0.70546194   0.16790527 
   22000        21939     692.0172   -53.747792    11187.493   0.10352686    1.5875569    3.6380504   0.15090833   0.53039736   0.75106513   0.15518612 
   22050        21989    659.72396    1067.4401    11106.374     0.104283    1.6824916     3.637298   0.14994944   0.63684903   0.74782178   0.14787133 
   22100        22039    627.80092   -502.98183    11027.254   0.10503122    1.7547238    3.6149401   0.12925507   0.70749137   0.75127543   0.16670195 
   22150        22089     694.5858    286.67281    10947.053   0.10580071    1.5441987    3.6023031   0.14143798   0.59064709   0.64500714   0.16710651 
   22200        22139    656.01359   -1152.5776    10872.135   0.10652976    1.6571142    3.6009265   0.11271149   0.59881725   0.75137242   0.19421304 
   22250        22189    633.20827    1216.5974    10793.514   0.10730574      1.70736    3.5835986   0.18875845    0.5259621   0.82327176   0.16936772 
   22300        22239    612.49082   -469.88819    10724.857   0.10799267    1.7807589    3.5956103   0.16661395   0.59646671   0.81489181   0.20278642 
   22350        22289    645.71461    947.39692    10657.146   0.10867881    1.6655034    3.5787992   0.14934507   0.50980585   0.84256038   0.16379214 
   22400        22339    669.65812    823.80869    10595.279    0.1093134    1.5730557    3.5572976   0.13237579   0.50983709   0.74967791   0.18116491 
   22450        22389    661.69891    732.20664    10533.347   0.10995612    1.5880232    3.5486814   0.14070997   0.50410923   0.79593473   0.14726922 
   22500        22439    606.60679     1239.947    10475.114   0.11056739    1.7369429    3.5343596   0.14835163    0.5175754   0.84097019    0.2300457 
   22550        22489    649.85169    1257.2087    10414.763    0.1112081    1.6136055    3.5391597   0.15857892   0.45653244    0.8254774   0.17301673 
   22600        22539    647.38404    461.58768    10356.911   0.11182928    1.6120569    3.5302992   0.11848869   0.57128439   0.75825933   0.16402445 
   22650        22589    651.25953     272.1571    10299.794   0.11244943    1.5987694    3.5284951   0.13825379   0.59870605   0.69808562   0.16372398 
   22700        22639    571.77283   -1524.9638    10240.342   0.11310228    1.8297938     3.523995   0.15799339   0.62276677   0.83517371    0.2138599 
   22750        22689    636.43748    804.26169    10182.425   0.11374559    1.6471155    3.5329225   0.16162541   0.57341316    0.7095791   0.20249782 
   22800        22739    635.37521   -1254.4397    10128.168   0.11435493    1.6704482    3.5531076   0.15399029   0.54466176   0.78073626   0.19105986 
   22850        22789    637.84536    467.02226     10072.24   0.11498991    1.6533223     3.543301   0.16097642   0.53253881   0.77572228   0.18408483 
   22900        22839     595.2706    195.24805    10018.215   0.11561001     1.761581    3.5254077   0.16760809   0.54187072    0.8601517   0.19195046 
   22950        22889    616.45963   -77.720431    9966.8915   0.11620534    1.6988678    3.5254791   0.14178346    0.5358373   0.82802444   0.19322263 
[...]
 1028200      1028139    265.63361   -162.34451    83520.203  0.013867375   0.69918752    1.4862777  0.067309476    0.2382449   0.33455095  0.059082189 
 1028250      1028189    269.23295    7.8154947    83765.468  0.013826771    0.6898155    1.4875708  0.084646429   0.23870228   0.31812399   0.04834279 
 1028300      1028239    252.97655     14.51466    83975.069   0.01379226   0.73847911    1.4880656   0.07601911   0.24863306   0.36734586  0.046481082 
 1028350      1028289    275.65064    71.684584    84129.726  0.013766905   0.67050261     1.487274  0.088291544   0.22200934   0.30196064  0.058241095 
 1028400      1028339    268.56854   -76.230367    84270.572  0.013743896   0.69223562    1.4880222  0.072415759   0.21978601   0.35408129   0.04595256 
 1028450      1028389    245.34615    15.855317    84323.475  0.013735273   0.76392244    1.4908996  0.083901923   0.25046316   0.36577763  0.063779722 
 1028500      1028439     254.0397    20.275455    84449.774  0.013714731   0.74103129     1.493768  0.075539783   0.25313302   0.35458625  0.057772238 
 1028550      1028489    251.28591    9.4642678    84601.196  0.013690184   0.75113417    1.4957112  0.087187624    0.2341048   0.37227724  0.057564503 
 1028600      1028539    257.18688    130.40808    84793.873  0.013659076   0.73380337    1.4958654  0.073538859   0.24003254   0.34866713   0.07156484 
 1028650      1028589    235.42213   -136.30349     85008.76  0.013624548   0.79974449     1.497316  0.080684726   0.24433155   0.39640289  0.078325316 
 1028700      1028639    264.47688    27.257264    85192.102  0.013595227   0.71344846    1.4971112  0.069695409   0.24867272   0.35588686   0.03919347 
 1028750      1028689    267.18208   -19.598909    85349.438  0.013570165   0.70133582    1.4930143  0.073889579   0.22007868   0.32119233  0.086175224 
 1028800      1028739    281.76772    13.391097    85527.592  0.013541899   0.65882646    1.4937231  0.071839081   0.21779899   0.31890545  0.050282936 
 1028850      1028789    254.54083    180.75249     85753.14  0.013506281   0.73991518    1.4941368  0.077111866   0.24737839   0.35413319  0.061291729 
 1028900      1028839    265.89072   -52.371763    86077.673  0.013455359   0.70457412    1.4924262  0.068171347   0.23843187   0.33766278  0.060308124 
 1028950      1028889    265.58941    27.158038    86331.011  0.013415874   0.70345829    1.4904176  0.072261656   0.24940241   0.32309844  0.058695778 
 1029000      1028939    253.68298   -27.669576    86561.352  0.013380174   0.73826252    1.4899422  0.068319101   0.25416321   0.35729179  0.058488424 
 1029050      1028989    264.97702    33.183532    86758.295  0.013349801   0.70362797    1.4887727  0.084246581   0.22755717   0.33555406  0.056270157 
 1029100      1029039    243.85651   -15.231446     87016.09  0.013310251    0.7671295    1.4896927   0.08217249    0.2346388   0.38199897  0.068319242 
 1029150      1029089    270.26101   -3.7959944    87251.357   0.01327436   0.68828135    1.4890829  0.072309708   0.23884488   0.32894526   0.04818149 
 1029200      1029139    255.90782   -57.146976    87466.049  0.013241778   0.73188058    1.4901526  0.080381563   0.24060102   0.34776589  0.063132107 
 1029250      1029189    233.01743   -28.180911    87668.996  0.013211124   0.80332319    1.4937695  0.084909166    0.2347456   0.41423734   0.06943108 
 1029300      1029239    247.48186    97.633699    87819.125  0.013188539   0.76259017    1.4958955  0.079899608   0.22023178   0.39826818  0.064190608 
 1029350      1029289    244.54075    -39.91875    87934.455  0.013171242   0.77130937       1.4959  0.079622777   0.23949671   0.39193099  0.060258897 
 1029400      1029339    271.23692    92.336645    88065.586   0.01315163   0.69277768    1.4964709  0.080632936   0.21620621   0.34022295  0.055715586 
 1029450      1029389    260.20495   -123.20908    88174.934   0.01313532   0.72773881    1.4987436  0.070863086   0.25886369   0.34864276  0.049369279 
 1029500      1029439    260.11402    90.754444     88269.07  0.013121312   0.72636599    1.4971013  0.083127595   0.23076662   0.34924403   0.06322775 
 1029550      1029489    251.30565    36.769361    88420.677  0.013098814   0.75397737    1.4986129  0.077738143   0.27298466    0.3480795  0.055175062 
 1029600      1029539    259.40154    123.18896    88661.736    0.0130632   0.73036091    1.4989851  0.090315388   0.24223963   0.32876485  0.069041035 
 1029650      1029589    266.99482   -115.51822     89006.91   0.01301254    0.7088053    1.4999289  0.070825591    0.2617505   0.32216127  0.054067937 
 1029700      1029639    263.06622   -22.332662    89250.856  0.012976973   0.72022015     1.499703  0.083915248   0.25751277   0.32085539  0.057936744 
 1029750      1029689    264.94126   -42.327346    89494.442  0.012941653   0.71415753    1.4991963  0.085355313   0.21538172   0.35158899  0.061831506 
 1029800      1029739    264.52537    72.998491    89714.664  0.012909885   0.71620335    1.5000098  0.096342042    0.2139908   0.36503684  0.040833669 
 1029850      1029789    267.87642    -45.02963    89935.284  0.012878216   0.70660671    1.5003425  0.082369373   0.21955676   0.34622399  0.058456583 
 1029900      1029839    277.79632    10.110316    90068.457  0.012859174   0.67647797    1.4996071   0.08030747   0.23447262   0.30720138  0.054496499 
 1029950      1029889    245.70523   -57.665691    90139.218  0.012849079    0.7749014    1.5029425  0.091951234   0.25762402   0.37128036  0.054045793 
 1030000      1029939    259.60736    100.64335    90221.328  0.012837386   0.73512775    1.5043618  0.080316796   0.26523235   0.33103903  0.058539573 
 1030050      1029989    251.24672    97.883097    90282.853  0.012828637   0.75922998    1.5036909  0.089960219   0.27173392   0.33216921  0.065366626 
 1030100      1030039     273.0875   -27.137653    90372.801  0.012815869   0.69468297    1.5038596  0.075238226   0.23437506   0.32389249    0.0611772 
 1030150      1030089    269.45826    37.196883    90410.336  0.012810548   0.70361215    1.5020351  0.080322003   0.23138172    0.3432028  0.048705626 
 1030200      1030139    251.94759    -98.23481    90460.829  0.012803398   0.75459035     1.501128  0.099891318   0.27755413   0.32034786  0.056797047 
 1030250      1030189    270.52904   -18.381256    90666.528   0.01277435   0.70184152    1.5034372  0.086324232   0.26017679   0.29649335  0.058847146 
 1030300      1030239    276.67968    92.597768    90948.085  0.012734803   0.68293267    1.5027531  0.080958632   0.25599927   0.30542957  0.040545204 
 1030350      1030289    266.60247   -135.37312    91224.699  0.012696188   0.71010467    1.5000657  0.083340437   0.25325037    0.3218666  0.051647261 
 1030400      1030339    273.33883    49.190648     91415.73  0.012669657   0.68719489    1.4971162    0.0880861   0.23889086   0.30902989  0.051188044 
 1030450      1030389    279.92859   -91.304798    91601.678  0.012643938   0.66524062    1.4946878  0.074175731   0.22600238    0.3074258  0.057636714 
 1030500      1030439    270.02251    38.305819    91773.359  0.012620285   0.69582793    1.4959228  0.087731601   0.23502473   0.31967498  0.053396624 
 1030550      1030489    264.24926    182.17889    92038.062  0.012583989   0.71503368     1.498022  0.073079683   0.25963793   0.32139916  0.060916903 
 1030600      1030539    264.69392   -78.290841    92376.353  0.012537905   0.71313365    1.4974395  0.079036049   0.23528384   0.35015407  0.048659698 
 1030650      1030589    244.60009   -9.0963025    92669.118  0.012498295   0.77292903    1.4976955  0.076772098   0.25661129   0.36858211  0.070963534 
 1030700      1030639    256.12344   -6.4834707    92880.241  0.012469885   0.74034381    1.4992548   0.07750867   0.26995235   0.34483119  0.048051598 
 1030750      1030689    238.62393   -23.969572    93018.774  0.012451314   0.79114168    1.4982004  0.075680434   0.25708295    0.3944427  0.063935597 
 1030800      1030739    253.27288    155.99231    93119.718  0.012437817   0.74833255    1.4987971   0.10173688   0.23825397   0.34934475  0.058996939 
 1030850      1030789    256.34935    -33.40979    93381.358  0.012402968   0.74135068     1.500931  0.068338833   0.26901817   0.35636128  0.047632395 
 1030900      1030839    252.84909   -19.595899    93529.421  0.012383333   0.75048266    1.4996915  0.097290576   0.23553337   0.36155616  0.056102554 
 1030950      1030889    264.66631    27.296175    93766.004  0.012352088   0.71555034    1.4997744  0.080996138   0.21994756   0.35405424  0.060552393 
 1031000      1030939    240.83774    11.948587    93963.824  0.012326084   0.78731496    1.5009333   0.10041715    0.2430914   0.38398348  0.059822928 
 1031050      1030989    260.39686    192.63751    94213.087  0.012293472    0.7266942    1.4982676  0.086426529   0.22729201   0.35279363  0.060182035 
 1031100      1031039    265.74441   -102.04472    94509.493  0.012254917   0.70931569    1.4967342  0.072450318   0.21207916    0.3681393  0.056646918 
 1031150      1031089    268.99786    41.878721    94747.398  0.012224145   0.69976552    1.4968242  0.083531257   0.23562689   0.32909439  0.051512982 
 1031200      1031139    262.73507   -1.3325211    95087.763  0.012180389   0.71858873    1.4970904   0.08884992   0.24643763   0.31667426  0.066626924 
 1031250      1031189    247.53268   -22.619257    95486.678  0.012129503   0.76474779    1.4982037  0.086491578   0.24710502   0.37559071  0.055560483 
 1031300      1031239     264.0944    117.74666    95898.585  0.012077404   0.71573394    1.4982634  0.096148471   0.24886898   0.31584853  0.054867952 
 1031350      1031289    243.48095   -196.03818    96392.117  0.012015567   0.77919994    1.5006503  0.077068824   0.29892923   0.34388156  0.059320317 
 1031400      1031339    257.72528    36.942884    96719.717  0.011974869   0.73958059    1.5032379   0.09242547   0.26537228   0.32162182  0.060161014 
 1031450      1031389    264.54648   -22.134068    97055.464  0.011933444   0.71820106      1.50207   0.07834654   0.24982415   0.32500803  0.065022332 
 1031500      1031439    259.05316    92.583382    97290.879  0.011904569   0.73331001    1.5009019  0.088682974   0.25348771   0.34158965  0.049549673 
 1031550      1031489    281.97733   -30.367516    97512.502  0.011877513    0.6647618    1.5002796  0.080185033    0.2255504    0.3035908  0.055435573 
 1031600      1031539    270.88489    -2.850604    97704.617  0.011854158   0.69771463    1.5003647  0.071022277    0.2497279   0.31618677  0.060777687 
 1031650      1031589    262.68523   -117.23023     97791.32  0.011843648   0.72205121    1.5004052  0.081134393   0.27212591   0.30622856  0.062562344 
 1031700      1031639    267.14828    172.11158    97943.962   0.01182519   0.70855331    1.5001316  0.089640175   0.25975859   0.29658459  0.062569952 
 1031750      1031689     261.8364   -63.741636    98203.956  0.011793883   0.72345101    1.4992898  0.072221072   0.26880435   0.32993325  0.052492339 
 1031800      1031739    276.54354    82.202832     98532.39  0.011754571   0.67829942    1.4977165  0.079266895     0.225305   0.30745463  0.066272897 
 1031850      1031789    260.68241   -54.783143    98998.833  0.011699188   0.72499632    1.4974158  0.065220494   0.27895502   0.32293668   0.05788412 
 1031900      1031839    262.57342   -35.454718    99402.995   0.01165162   0.72057596    1.4985986  0.077724467   0.24694338   0.34806685  0.047841251 
 1031950      1031889    267.98217    116.45328    99805.854   0.01160459   0.70240005    1.4964492  0.080275912   0.22620237    0.3325584  0.063363363 
 1032000      1031939    263.49779   -24.895785    100159.23  0.011563647   0.71605043    1.4968121  0.083873489   0.25319878   0.33440982   0.04456835 
 1032050      1031989    255.11283    5.7898048    100485.13  0.011526143   0.74267889    1.4985953  0.091332957   0.24758982   0.34288375  0.060872374 
 1032100      1032039    257.02293   -25.778626    100764.24  0.011494217   0.73665835    1.4982345  0.082430921    0.2907682   0.30993204  0.053527191 
 1032150      1032089    252.51287   -51.812627     100945.4  0.011473589   0.75100227    1.4992149  0.096214974   0.24537031   0.35400253  0.055414454 
 1032200      1032139    284.85002    41.705772    101150.32  0.011450344   0.65277398    1.4968037  0.083014572   0.19726231   0.30870693  0.063790167 
 1032250      1032189    267.86939    33.417135    101297.79  0.011433675   0.70528152    1.4989965    0.0884854   0.23193046   0.31431694   0.07054872 
 1032300      1032239    257.73323   -97.348907    101461.31  0.011415247   0.73962033    1.5033012  0.077143153   0.24562784   0.35607778  0.060771551 
 1032350      1032289    264.58272    20.130611    101554.31  0.011404794    0.7224505    1.5064269  0.080599209   0.24459659   0.33867137  0.058583331 
 1032400      1032339    257.77754   -1.9171442    101653.53  0.011393662   0.74264652    1.5064587  0.080939247   0.27104252   0.32707553  0.063589221 
 1032450      1032389    265.58421    66.669057    101829.48  0.011373976   0.71983332    1.5067772  0.078886707    0.2504625   0.33209388  0.058390236 
 1032500      1032439    264.72901    72.676908    102030.35  0.011351582    0.7217093    1.5061191  0.082252261   0.23235053   0.34651695  0.060589562 
 1032550      1032489    234.05524   -90.232015    102267.45  0.011325264   0.81292468    1.5064461  0.088029016   0.23145386   0.43076317  0.062678629 
 1032600      1032539    257.37903    79.510073    102547.78  0.011294306   0.74209538    1.5047267  0.081918664   0.26518914   0.33592055  0.059067023 
 1032650      1032589    267.35919   -69.034617    102802.68  0.011266302   0.71084343    1.5030467  0.088252691   0.25081718   0.31495528   0.05681828 
 1032700      1032639    270.05158    122.53404     103081.4  0.011235839   0.70047704     1.500658  0.081747065   0.21251494   0.34731974  0.058895295 
 1032750      1032689    259.01484   -40.447728    103344.15  0.011207272   0.73399384    1.5014722  0.078614487    0.2588359   0.34191329  0.054630166 
 1032800      1032739    259.08556   -31.447954    103634.51  0.011175871   0.73283394    1.5005218  0.083523715   0.25450112   0.34531662  0.049492493 
 1032850      1032789     259.7533   -26.564495    103898.38  0.011147489   0.73072462    1.5003911  0.080449449   0.24678061   0.35093814  0.052556423 
 1032900      1032839    267.49468    18.260832    104155.71  0.011119947   0.70526397    1.4978687  0.074684812   0.22487954   0.34989773  0.055801886 
 1032950      1032889    250.70229    94.080895    104311.53  0.011103337   0.75382247    1.4966702  0.083830319   0.23677906   0.38236581  0.050847281 
 1033000      1032939    248.51406    11.714135       104499  0.011083416   0.76095616      1.49732  0.075056745    0.2411521   0.39335733  0.051389989 
 1033050      1032989    257.91779    23.356709    104676.75  0.011064596    0.7314859    1.4957136  0.072749688   0.25118208   0.35209518  0.055458948 
 1033100      1033039    248.20721    13.058484    104886.49   0.01104247   0.75913868    1.4945933  0.072261483   0.24631488   0.37576263  0.064799684 
 1033150      1033089    258.44358    70.985312     105196.3  0.011009949   0.72648366    1.4922693  0.069726913   0.24936263   0.35082523  0.056568883 
 1033200      1033139     261.0124   -61.839564    105506.29  0.010977601   0.71848538    1.4918827  0.071645701   0.24726799   0.35695324  0.042618454 
 1033250      1033189     256.4602    57.942941    105882.83  0.010938563   0.73057333    1.4904821  0.062901866   0.27559089   0.33525435  0.056826223 
 1033300      1033239    265.32279    -52.82937    106237.57  0.010902038   0.70111415    1.4872834     0.058998   0.25409088   0.33529074  0.052734527 
 1033350      1033289    271.88085     13.73056    106531.64  0.010871944   0.68092949    1.4865307  0.073098332   0.21817198   0.32739156  0.062267621 
 1033400      1033339    256.16815    40.098495    106878.97  0.010836613   0.72952315    1.4885666  0.062416381   0.26450841   0.34782705  0.054771313 
 1033450      1033389    254.34651    14.517913    107155.96  0.010808601   0.73357158    1.4872174  0.075652261   0.25435822    0.3449119  0.058649193 
 1033500      1033439     250.2326    28.636739    107541.94  0.010769807   0.74321839    1.4846744  0.069305699   0.23433528   0.36519056  0.074386846 
 1033550      1033489    258.08568   -8.5894631    107915.05  0.010732572   0.71912719    1.4838524  0.069543704   0.24519109   0.33905843  0.065333964 
 1033600      1033539    258.07413    5.3161018    108283.67  0.010696035   0.72298186    1.4876728  0.068919873     0.242799   0.36094632   0.05031667 
 1033650      1033589    250.36959    47.096008    108710.52  0.010654038   0.74521598    1.4870779  0.067328525   0.22713235   0.39878611  0.051968997 
 1033700      1033639    249.28956     78.41928    109090.09  0.010616967    0.7486761    1.4873378  0.074318773   0.23410376    0.3866143  0.053639265 
 1033750      1033689    260.57773   -59.309582    109440.18  0.010583005   0.71601937    1.4881287  0.063586914   0.24573737   0.35799263  0.048702457 
 1033800      1033739    229.55364    14.125709    109658.55  0.010561931   0.81045793    1.4906408  0.080515678   0.26522392   0.39872423  0.065994106 
 1033850      1033789     233.4348   -23.199821     109899.8  0.010538745   0.80239132    1.4940743  0.078976954   0.28878922   0.37746394  0.057161216 
 1033900      1033839    244.26086     64.66378    110137.44  0.010516006   0.76992935    1.4936907   0.08221595   0.24047629   0.38346984  0.063767268 
 1033950      1033889    260.11799    15.517113    110322.28  0.010498386   0.72295326    1.4937003  0.067787814   0.23110241   0.36292451  0.061138529 
 1034000      1033939    258.49728   -39.638341    110406.45  0.010490383    0.7304126    1.4963574  0.077679468   0.24911904   0.35421326  0.049400838 
 1034050      1033989    249.40215    24.660221    110520.56  0.010479552    0.7567549    1.4957502  0.063266574   0.31695863   0.31577426  0.060755433 
 1034061      1034000    242.61637    143.89178    110541.57  0.010477561   0.77668282    1.4955714  0.072088614   0.24659263   0.38174811  0.076253463 
Loop time of 388.229 on 8 procs for 1000000 steps with 168 atoms

Performance: 222.549 ns/day, 0.108 hours/ns, 2575.799 timesteps/s
99.9% CPU use with 8 MPI tasks x no OpenMP threads

MPI task timing breakdown:
Section |  min time  |  avg time  |  max time  |%varavg| %total
---------------------------------------------------------------
Pair    | 87.22      | 142.52     | 196.72     | 272.5 | 36.71
Bond    | 19.899     | 20.462     | 20.832     |   7.4 |  5.27
Kspace  | 88.097     | 142.24     | 197.35     | 273.3 | 36.64
Neigh   | 9.1048     | 9.1191     | 9.1418     |   0.5 |  2.35
Comm    | 53.606     | 54.258     | 54.942     |   5.3 | 13.98
Output  | 2.5839     | 2.6228     | 2.8779     |   6.0 |  0.68
Modify  | 9.5631     | 11.122     | 14.214     |  43.7 |  2.86
Other   |            | 5.88       |            |       |  1.51

Nlocal:        21.0000 ave          65 max           0 min
Histogram: 4 0 1 0 1 0 0 0 0 2
Nghost:        168.500 ave         210 max         107 min
Histogram: 2 0 0 0 1 1 0 0 2 2
Neighs:        1022.38 ave        3681 max           0 min
Histogram: 4 0 1 1 0 1 0 0 0 1

Total # of neighbors = 8179
Ave neighs/atom = 48.684524
Ave special neighs/atom = 9.1428571
Neighbor list builds = 21077
Dangerous builds = 0
System init for write_data ...
PPPM initialization ...
  using 12-bit tables for long-range coulomb (../kspace.cpp:340)
  G vector (1/distance) = 0.095552071
  grid = 4 4 4
  stencil order = 5
  estimated absolute RMS force accuracy = 0.033858123
  estimated relative force accuracy = 0.00010196273
  using double precision KISS FFT
  3d grid and FFT values/proc = 343 8
Total wall time: 0:06:34
