LAMMPS (29 Sep 2021)
# PREREQUISITES:
#
#     You must use moltemplate.sh to create 3 files:
#        system.data  system.in.init  system.in.settings
#     (Follow the instructions in README_setup.sh,
#      or run the file as a script using ./README_setup.sh)

# ------------------------------- Initialization Section --------------------

include         system.in.init
  atom_style full
  units real
  bond_style harmonic
  angle_style harmonic
  dihedral_style opls
  improper_style harmonic
  pair_style lj/cut/coul/long 11.0 11.0
  pair_modify mix geometric
  special_bonds lj/coul 0.0 0.0 0.5
  kspace_style pppm 0.0001

# ------------------------------- Atom Definition Section -------------------

read_data       system.data
Reading data file ...
  orthogonal box = (0.0000000 0.0000000 0.0000000) to (62.400000 62.400000 62.400000)
  2 by 2 by 2 MPI processor grid
  reading atoms ...
  168 atoms
  scanning bonds ...
  4 = max bonds/atom
  scanning angles ...
  6 = max angles/atom
  scanning dihedrals ...
  9 = max dihedrals/atom
  reading bonds ...
  156 bonds
  reading angles ...
  288 angles
  reading dihedrals ...
  324 dihedrals
Finding 1-2 1-3 1-4 neighbors ...
  special bond factors lj:    0        0        0.5     
  special bond factors coul:  0        0        0.5     
     4 = max # of 1-2 neighbors
     6 = max # of 1-3 neighbors
     9 = max # of 1-4 neighbors
    13 = max # of special neighbors
  special bonds CPU = 0.001 seconds
  read_data CPU = 0.014 seconds

# ------------------------------- Settings Section --------------------------

include         system.in.settings
  pair_coeff 1 1 0.066 3.5
  pair_coeff 2 2 0.066 3.5
  pair_coeff 3 3 0.03 2.5
  bond_coeff 1 268.0 1.529
  bond_coeff 2 340.0 1.09
  angle_coeff 1 58.35 112.7
  angle_coeff 2 33.0 107.8
  angle_coeff 3 37.5 110.7
  dihedral_coeff 1 1.3 -0.05 0.2 0.0
  dihedral_coeff 2 0.0 0.0 0.3 0.0
  dihedral_coeff 3 0.0 0.0 0.3 0.0
  set type 1 charge -0.18
Setting atom values ...
  24 settings made for charge
  set type 2 charge -0.12
Setting atom values ...
  24 settings made for charge
  set type 3 charge 0.06
Setting atom values ...
  120 settings made for charge
include         system.in.charges

# ------------------------------- Run Section -------------------------------

# To avoid explosions, I have a 4-step equilibraion process (expand, minimize,
# reorient, compress).  The system (as defined in the "system.data" file)
# is already expanded.  That means there are 3 steps left:

dump            dumpeq1 all custom 50 traj_eq1_min.lammpstrj id mol type x y z ix iy iz
thermo_style    custom step time temp press vol density pe etotal epair ebond eangle edihed
thermo          50
thermo_modify   norm yes

# -- Equilibration: part 1: initial minimization --

# Note: In general, it's always a good idea to minimize the system at first.

minimize 1.0e-5 1.0e-7 100000 400000
WARNING: Using 'neigh_modify every 1 delay 0 check yes' setting during minimization (../min.cpp:188)
PPPM initialization ...
  using 12-bit tables for long-range coulomb (../kspace.cpp:340)
  G vector (1/distance) = 0.077713503
  grid = 4 4 4
  stencil order = 5
  estimated absolute RMS force accuracy = 0.033197132
  estimated relative force accuracy = 9.9972176e-05
  using double precision KISS FFT
  3d grid and FFT values/proc = 343 8
Neighbor list info ...
  update every 1 steps, delay 0 steps, check yes
  max neighbors/atom: 2000, page size: 100000
  master list distance cutoff = 13
  ghost atom cutoff = 13
  binsize = 6.5, bins = 10 10 10
  1 neighbor lists, perpetual/occasional/extra = 1 0 0
  (1) pair lj/cut/coul/long, perpetual
      attributes: half, newton on
      pair build: half/bin/newton
      stencil: half/bin/3d
      bin: standard
Per MPI rank memory allocation (min/avg/max) = 13.23 | 14.16 | 14.81 Mbytes
Step Time Temp Press Volume Density PotEng TotEng E_pair E_bond E_angle E_dihed 
       0            0            0   -22.469697    242970.62  0.004766856   0.16663352   0.16663352   0.10261751  0.004253558  0.059762447 1.4122301e-16 
      50           50            0   -2.3518543    242970.62  0.004766856 -0.0061535273 -0.0061535273 -0.023137078 0.00079101911  0.014452059 0.0017404729 
      61           61            0    -5.626192    242970.62  0.004766856 -0.0076420745 -0.0076420745 -0.026541446 0.0010279999  0.016203653 0.0016677178 
Loop time of 0.0738082 on 8 procs for 61 steps with 168 atoms

98.8% CPU use with 8 MPI tasks x no OpenMP threads

Minimization stats:
  Stopping criterion = energy tolerance
  Energy initial, next-to-last, final = 
     0.166633517576281 -0.0076420659999959 -0.00764207447661148
  Force two-norm initial, final = 101.42457 7.9244281
  Force max component initial, final = 14.922581 1.1855682
  Final line search alpha, max atom move = 0.042172023 0.049997810
  Iterations, force evaluations = 61 178

MPI task timing breakdown:
Section |  min time  |  avg time  |  max time  |%varavg| %total
---------------------------------------------------------------
Pair    | 1.9912e-05 | 0.0075242  | 0.025478   |  10.6 | 10.19
Bond    | 3.5224e-05 | 0.0040826  | 0.026393   |  13.5 |  5.53
Kspace  | 0.017562   | 0.057845   | 0.06942    |   7.1 | 78.37
Neigh   | 0          | 0          | 0          |   0.0 |  0.00
Comm    | 0.0016621  | 0.0021096  | 0.0025885  |   0.7 |  2.86
Output  | 0.00034923 | 0.00035182 | 0.00036884 |   0.0 |  0.48
Modify  | 0          | 0          | 0          |   0.0 |  0.00
Other   |            | 0.001895   |            |       |  2.57

Nlocal:        21.0000 ave         106 max           0 min
Histogram: 5 1 0 1 0 0 0 0 0 1
Nghost:        139.000 ave         162 max          62 min
Histogram: 1 0 0 0 0 0 0 1 3 3
Neighs:        1135.00 ave        3769 max           0 min
Histogram: 4 1 0 0 1 0 0 1 0 1

Total # of neighbors = 9080
Ave neighs/atom = 54.047619
Ave special neighs/atom = 9.1428571
Neighbor list builds = 0
Dangerous builds = 0
undump          dumpeq1

write_data   system_after_eq1_min.data
System init for write_data ...
PPPM initialization ...
  using 12-bit tables for long-range coulomb (../kspace.cpp:340)
  G vector (1/distance) = 0.077713503
  grid = 4 4 4
  stencil order = 5
  estimated absolute RMS force accuracy = 0.033197132
  estimated relative force accuracy = 9.9972176e-05
  using double precision KISS FFT
  3d grid and FFT values/proc = 343 8

# -- Equilibration part 2: reorienting the molecules (NVT) --

timestep        1.0
dump dumpeq2 all custom 200 traj_eq2_reorient.lammpstrj id mol type x y z ix iy iz

# Give each atom a random initial velocity consistent with a system at 900.0K.
velocity all create 900.0 12345


# Run the system at high temperature (at constant volume) to reorient the
# the molecules (which would otherwise be pointing in the same direction).

# To speed it up, I randomize the atomic positions for a few thousand steps
# using fix langevin (and fix nve).  Then I switch to fix nvt (Nose-Hoover).
# (If I start with fix nvt (Nose-Hoover), it seems to get "stuck" for a while.)


fix fxlan all langevin  900.0 900.0  120 48279
fix fxnve all nve

run             4000
PPPM initialization ...
  using 12-bit tables for long-range coulomb (../kspace.cpp:340)
  G vector (1/distance) = 0.077713503
  grid = 4 4 4
  stencil order = 5
  estimated absolute RMS force accuracy = 0.033197132
  estimated relative force accuracy = 9.9972176e-05
  using double precision KISS FFT
  3d grid and FFT values/proc = 343 8
Per MPI rank memory allocation (min/avg/max) = 11.84 | 12.04 | 12.42 Mbytes
Step Time Temp Press Volume Density PotEng TotEng E_pair E_bond E_angle E_dihed 
      61            0          900    78.663092    242970.62  0.004766856 -0.0076420745    2.6591183 -0.026541446 0.0010279999  0.016203653 0.0016677178 
     100           39    676.63538    6.0286958    242970.62  0.004766856    1.3211606    3.3260766  0.096974989   0.36772198   0.67305441   0.18340917 
     150           89    720.48729    39.560037    242970.62  0.004766856    1.9780291    4.1128813   0.10622367   0.66204888     1.034358   0.17539853 
     200          139    764.30815   -10.446898    242970.62  0.004766856    2.3407523    4.6054487   0.10240842   0.98746273    1.0363761   0.21450504 
     250          189    890.20343    21.536549    242970.62  0.004766856    2.4600925     5.097825    0.1629454   0.88971222    1.2160768   0.19135805 
     300          239    922.00439     3.781749    242970.62  0.004766856    2.3714358    5.1033967   0.13774265   0.82669328    1.1841426   0.22285733 
     350          289    900.33257   -17.079732    242970.62  0.004766856    2.3304954    4.9982412   0.11141027   0.83019772    1.1793263   0.20956106 
     400          339    780.56255    76.952583    242970.62  0.004766856    2.3677403    4.6805995   0.16747662   0.78786745    1.1851238   0.22727246 
     450          389    843.40208   -35.350792    242970.62  0.004766856    2.2261317    4.7251887   0.14810064   0.75330268    1.0865342   0.23819426 
     500          439    869.93976   -39.741744    242970.62  0.004766856    2.0404911     4.618181   0.13374741   0.70683686    1.0082438   0.19166308 
     550          489    816.57865    21.199552    242970.62  0.004766856    2.2623469    4.6819242   0.17279859   0.73115975     1.169995   0.18839354 
     600          539    757.01867   -47.953822    242970.62  0.004766856    2.1909002    4.4339974   0.15309519   0.71416721    1.1123355   0.21130235 
     650          589     839.6146   -14.678809    242970.62  0.004766856    2.2892414    4.7770759   0.13137229    0.7604294     1.253641   0.14379877 
     700          639    824.83545    11.144411    242970.62  0.004766856     2.384852    4.8288948   0.14243671   0.81027781    1.2337651   0.19837233 
     750          689    874.80798    49.393696    242970.62  0.004766856    2.3439101    4.9360248   0.13374097   0.79763608    1.2481594   0.16437364 
     800          739    946.24509   -22.901906    242970.62  0.004766856    2.4404053     5.244193   0.17121529   0.88445762     1.156484   0.22824838 
     850          789     987.7501    96.200058    242970.62  0.004766856    2.5202794    5.4470492   0.14890072    0.9435249    1.2038441   0.22400964 
     900          839    946.86547   -6.5972053    242970.62  0.004766856    2.5195187    5.3251447   0.16981582   0.98215165    1.1452628    0.2222885 
     950          889    976.15758    107.03976    242970.62  0.004766856    2.4530749    5.3454953   0.15000066   0.81123736    1.2566015   0.23523535 
    1000          939    832.64373   -112.21694    242970.62  0.004766856    2.6981409    5.1653202   0.12753545   0.95675387    1.3908671   0.22298444 
    1050          989    883.92133    127.45606    242970.62  0.004766856    2.4188315    5.0379497   0.16014594   0.88879377    1.1961316   0.17376018 
    1100         1039    840.22044   -134.07094    242970.62  0.004766856    2.4446812    4.9343108   0.14539225   0.88832337    1.2178736   0.19309206 
    1150         1089    883.28743     140.7378    242970.62  0.004766856    2.3361939    4.9534338   0.16397096   0.76494474    1.1682869    0.2389913 
    1200         1139    942.59252   -25.982373    242970.62  0.004766856    2.3417005    5.1346654   0.13287148   0.86547108    1.1423767    0.2009813 
    1250         1189    866.72993    74.211156    242970.62  0.004766856    2.4192689    4.9874479   0.19857797   0.78498117    1.1899932   0.24571664 
    1300         1239    905.46129   -42.729955    242970.62  0.004766856    2.4477533    5.1306959   0.14404939   0.86270764     1.188858   0.25213828 
    1350         1289    889.85738    56.596996    242970.62  0.004766856    2.3498435    4.9865506    0.1598165   0.75296197    1.1988242    0.2382408 
    1400         1339    838.81917   -96.212233    242970.62  0.004766856    2.5997677    5.0852452   0.12662201   0.97968739    1.2803864   0.21307188 
    1450         1389    944.00751    28.194086    242970.62  0.004766856    2.3145141    5.1116718   0.15565064   0.88990064    1.0642002    0.2047627 
    1500         1439    910.74056   -22.718624    242970.62  0.004766856    2.5325327    5.2311181   0.16056619   0.91174451    1.2601248   0.20009725 
    1550         1489    957.50685   -17.165492    242970.62  0.004766856    2.5304073    5.3675644   0.14025428   0.91930764    1.2250172   0.24582821 
    1600         1539    1013.2812   -1.3418335    242970.62  0.004766856    2.5557017     5.558122   0.17902281   0.98269722    1.1649806   0.22900108 
    1650         1589    1050.5288    66.382909    242970.62  0.004766856    2.2591343    5.3719217   0.14919823   0.96098527    0.9330309   0.21591991 
    1700         1639    971.43872   -32.645882    242970.62  0.004766856    2.7045658    5.5830039   0.19107078   0.96303808    1.2954375   0.25501942 
    1750         1689    941.35009    20.968681    242970.62  0.004766856    2.5755926    5.3648761   0.14511043    1.0133951    1.2156063   0.20148079 
    1800         1739    912.05297   -57.298875    242970.62  0.004766856    2.6220033    5.3244775   0.16716113   0.87367541    1.3750973   0.20606945 
    1850         1789    1012.3727     31.47528    242970.62  0.004766856    2.4950885    5.4948169   0.19980346    0.8072665    1.2746713   0.21334725 
    1900         1839    963.01219   -33.880429    242970.62  0.004766856     2.513203    5.3666727   0.14311772   0.94233843    1.2093731   0.21837373 
    1950         1889    1036.7291    23.807746    242970.62  0.004766856    2.4560325    5.5279304   0.18396794   0.85943658    1.1770533   0.23557469 
    2000         1939    996.94048   -53.034633    242970.62  0.004766856    2.6909848    5.6449864   0.17394228    1.0058672    1.3025418   0.20863362 
    2050         1989    1014.2607    33.652507    242970.62  0.004766856     2.520187    5.5255095   0.23105847   0.82886113    1.2515493   0.20871805 
    2100         2039    989.65079   -71.846646    242970.62  0.004766856    2.4620781    5.3944799   0.13454369   0.84362235     1.282209   0.20170313 
    2150         2089    939.09487    132.05787    242970.62  0.004766856    2.5761533    5.3587544   0.20790391   0.84389023    1.3161327   0.20822645 
    2200         2139    887.90199   -64.418678    242970.62  0.004766856    2.8153439    5.4462571   0.17005871    1.0496922    1.3639329   0.23166014 
    2250         2189    1008.1982    90.990898    242970.62  0.004766856    2.7356713    5.7230304   0.18435704    1.0090523    1.2919254   0.25033654 
    2300         2239    1009.3105   -118.74411    242970.62  0.004766856    2.8261022    5.8167571   0.16977318    1.0165576    1.4063284     0.233443 
    2350         2289    966.65439     76.51206    242970.62  0.004766856    2.5020389    5.3663007   0.17841367   0.90560884    1.1919728   0.22604354 
    2400         2339    908.24575   -36.813491    242970.62  0.004766856    2.5873061    5.2784992   0.17615008   0.87797882    1.3254284   0.20774878 
    2450         2389    868.79346    55.042596    242970.62  0.004766856    2.4418227    5.0161161   0.14505052   0.89467743    1.1775223   0.22457251 
    2500         2439      846.942   -8.1088928    242970.62  0.004766856    2.6612941    5.1708401   0.18246555    1.0362093    1.2245935   0.21802573 
    2550         2489      832.688   -28.887529    242970.62  0.004766856    2.6714871    5.1387975   0.16002864    1.1232136    1.1572971   0.23094782 
    2600         2539    924.11695   -30.763035    242970.62  0.004766856    2.4440434    5.1822639   0.17186898   0.94149522    1.1431932   0.18748601 
    2650         2589    864.65479    -50.07967    242970.62  0.004766856     2.426116    4.9881462    0.1693075   0.83986286    1.1949288   0.22201684 
    2700         2639    969.56045     1.396209    242970.62  0.004766856    2.2686142    5.1414869   0.17377583   0.68946802    1.2159027   0.18946768 
    2750         2689     904.0462   -34.911568    242970.62  0.004766856    2.4759585    5.1547081   0.13529115   0.87948767    1.2477575   0.21342215 
    2800         2739    881.29044   -1.6432794    242970.62  0.004766856    2.5401886    5.1515113   0.16975397   0.85747914    1.3161061   0.19684933 
    2850         2789    925.99453   -52.494913    242970.62  0.004766856      2.36228    5.1060639   0.13069385   0.88310746    1.1543297   0.19414896 
    2900         2839     893.3555     84.23927    242970.62  0.004766856    2.6165521    5.2636244   0.17499179   0.89222569    1.3388847   0.21044992 
    2950         2889    857.17011    9.6038425    242970.62  0.004766856    2.5499093    5.0897618   0.15424746   0.84633749    1.3107609   0.23856344 
    3000         2939    879.63754   -45.837545    242970.62  0.004766856     2.685005    5.2914301   0.14458739   0.89775959    1.4238304   0.21882762 
    3050         2989    925.04089   -4.7954713    242970.62  0.004766856    2.6701375    5.4110958   0.15457041    1.0085759    1.2893276   0.21766358 
    3100         3039    938.03126   -95.932261    242970.62  0.004766856    2.6453228    5.4247724   0.12309698    1.1001658    1.2226018   0.19945829 
    3150         3089    1043.5182    37.461633    242970.62  0.004766856    2.3657998    5.4578142   0.17041094   0.83024393    1.1614009   0.20374404 
    3200         3139    912.73312     46.66923    242970.62  0.004766856      2.28104    4.9855295   0.12249958   0.65477647    1.2895775   0.21418651 
    3250         3189    878.53165   -53.639547    242970.62  0.004766856    2.4569404    5.0600887   0.18701183   0.96423977    1.1126721   0.19301674 
    3300         3239    868.67389   -61.255397    242970.62  0.004766856    2.5060975    5.0800365   0.15047578   0.95819771    1.2097488   0.18767525 
    3350         3289    906.32174    73.681207    242970.62  0.004766856    2.5153433    5.2008354   0.14537981   0.93685033    1.2620028   0.17111028 
    3400         3339    893.29916    64.936559    242970.62  0.004766856    2.4630741    5.1099795   0.20793722   0.82696666    1.1958542   0.23231601 
    3450         3389     982.5978   -55.269704    242970.62  0.004766856     2.322583    5.2340862   0.11251806   0.87083877    1.1555868   0.18363934 
    3500         3439    962.42662    17.644749    242970.62  0.004766856    2.4382948    5.2900294    0.1960255    0.7879079    1.2657526   0.18860878 
    3550         3489    969.92194    -8.323229    242970.62  0.004766856    2.1652992     5.039243   0.11630696   0.83369072    1.0484285   0.16687304 
    3600         3539    862.87764   -19.529604    242970.62  0.004766856    2.4246946     4.981459   0.15473363   0.90369684    1.1341767   0.23208744 
    3650         3589    859.19823    19.491205    242970.62  0.004766856    2.4359813    4.9818433   0.12762789    1.0353706    1.0900498   0.18293306 
    3700         3639    876.80832    1.4227479    242970.62  0.004766856    2.6180266    5.2160685   0.17212832   0.94930562    1.2992351   0.19735751 
    3750         3689     1010.844    0.1172245    242970.62  0.004766856    2.2717792    5.2669777   0.13014828   0.85113439    1.1323038   0.15819271 
    3800         3739    891.92005   -16.477652    242970.62  0.004766856    2.7657363    5.4085553   0.23493317    0.9630917     1.339091   0.22862047 
    3850         3789    903.46402    29.597855    242970.62  0.004766856    2.5629078    5.2399323   0.17730997   0.96384949    1.1900562   0.23169213 
    3900         3839     1026.433    -43.68612    242970.62  0.004766856    2.3964662    5.4378562   0.12900374    1.0259251    1.0556701    0.1858672 
    3950         3889    949.67387    29.197079    242970.62  0.004766856    2.4433746     5.257322   0.17860802   0.88655975     1.144842    0.2333648 
    4000         3939    934.55042    -51.81118    242970.62  0.004766856    2.5580208    5.3271564   0.15434589    1.0215066    1.1471482   0.23502017 
    4050         3989    953.66987   -47.615477    242970.62  0.004766856    2.4914233    5.3172112   0.14956967    1.0080677     1.137544   0.19624197 
    4061         4000    941.70702  -0.72104733    242970.62  0.004766856    2.6620607    5.4524018   0.15233571   0.99972904     1.306117   0.20387888 
Loop time of 0.923831 on 8 procs for 4000 steps with 168 atoms

Performance: 374.095 ns/day, 0.064 hours/ns, 4329.798 timesteps/s
99.6% CPU use with 8 MPI tasks x no OpenMP threads

MPI task timing breakdown:
Section |  min time  |  avg time  |  max time  |%varavg| %total
---------------------------------------------------------------
Pair    | 0.0074943  | 0.091082   | 0.22194    |  27.6 |  9.86
Bond    | 0.0022029  | 0.09241    | 0.28105    |  30.0 | 10.00
Kspace  | 0.32088    | 0.57492    | 0.73075    |  19.8 | 62.23
Neigh   | 0.02266    | 0.022963   | 0.023254   |   0.1 |  2.49
Comm    | 0.051967   | 0.099411   | 0.12058    |   6.9 | 10.76
Output  | 0.017434   | 0.017695   | 0.018171   |   0.2 |  1.92
Modify  | 0.0019198  | 0.0075733  | 0.020976   |   7.1 |  0.82
Other   |            | 0.01778    |            |       |  1.92

Nlocal:        21.0000 ave          71 max           1 min
Histogram: 4 1 0 0 1 0 1 0 0 1
Nghost:        134.000 ave         165 max          97 min
Histogram: 1 0 0 1 0 3 2 0 0 1
Neighs:        891.875 ave        2562 max          33 min
Histogram: 4 1 0 0 0 0 1 1 0 1

Total # of neighbors = 7135
Ave neighs/atom = 42.470238
Ave special neighs/atom = 9.1428571
Neighbor list builds = 212
Dangerous builds = 1

unfix fxlan
unfix fxnve
# Now continue the simulation at high temperature using fix nvt (Nose-Hoover).
fix fxnvt all nvt temp 900.0 900.0 100.0

run             10000
PPPM initialization ...
  using 12-bit tables for long-range coulomb (../kspace.cpp:340)
  G vector (1/distance) = 0.077713503
  grid = 4 4 4
  stencil order = 5
  estimated absolute RMS force accuracy = 0.033197132
  estimated relative force accuracy = 9.9972176e-05
  using double precision KISS FFT
  3d grid and FFT values/proc = 343 8
Per MPI rank memory allocation (min/avg/max) = 12.22 | 13.27 | 13.68 Mbytes
Step Time Temp Press Volume Density PotEng TotEng E_pair E_bond E_angle E_dihed 
    4061         4000    941.70702  -0.72104733    242970.62  0.004766856    2.6620607    5.4524018   0.15233571   0.99972904     1.306117   0.20387888 
    4100         4039    935.66182     69.11714    242970.62  0.004766856    2.6439097    5.4163384   0.22431025   0.88813943    1.3160985   0.21536153 
    4150         4089    933.21951   -26.862966    242970.62  0.004766856    2.5135658    5.2787579   0.15472175   0.80499988    1.3558834   0.19796078 
    4200         4139    943.07737   -11.339871    242970.62  0.004766856    2.2806976    5.0750992   0.15820165   0.78699815    1.1504318   0.18506599 
    4250         4189    867.42222    52.541087    242970.62  0.004766856    2.3457129    4.9159432    0.1723464   0.78450385    1.1562447   0.23261793 
    4300         4239    848.49215   -109.65508    242970.62  0.004766856    2.3732123    4.8873515   0.13329696   0.97915103    1.0561816   0.20458277 
    4350         4289    876.72886    107.83472    242970.62  0.004766856    2.3275287    4.9253352   0.21338623    0.9470965    0.9325413   0.23450471 
    4400         4339    856.14076   -107.52341    242970.62  0.004766856    2.4543878    4.9911903   0.17601966   0.95676927    1.0696991   0.25189974 
    4450         4389    943.85695    57.392668    242970.62  0.004766856      2.28318    5.0798915   0.17003266   0.85919913    1.0647949   0.18915338 
    4500         4439    887.03336  -0.35228705    242970.62  0.004766856    2.5384163    5.1667557   0.20330294   0.84323867    1.2484295    0.2434452 
    4550         4489     1015.027    18.290159    242970.62  0.004766856     2.223323    5.2309162   0.16408443   0.74635913    1.1193353   0.19354412 
    4600         4539    933.06895   -34.748204    242970.62  0.004766856    2.5241213    5.2888672   0.20225357   0.91289393    1.2080621    0.2009117 
    4650         4589    918.32532   -26.925241    242970.62  0.004766856    2.5836966    5.3047561   0.21315969   0.99822376    1.1898597   0.18245339 
    4700         4639    910.43202    58.788636    242970.62  0.004766856    2.5422319     5.239903   0.17751298   0.89079817     1.243633   0.23028775 
    4750         4689     884.7253    7.2753881    242970.62  0.004766856    2.4145341    5.0360345   0.20311969   0.94801444    1.0687994   0.19460053 
    4800         4739    842.55204   -36.922147    242970.62  0.004766856    2.3447529    4.8412912   0.17963163   0.84560542    1.1634175   0.15609835 
    4850         4789    811.52782    10.217382    242970.62  0.004766856    2.3584944    4.7631058   0.20239292   0.74438362    1.2278584   0.18385946 
    4900         4839    841.33653    47.798352    242970.62  0.004766856    2.3048124     4.797749   0.20264128   0.76420302     1.171455   0.16651313 
    4950         4889    860.81322   -24.599645    242970.62  0.004766856     2.387609    4.9382563   0.19161084   0.84192438    1.1666271   0.18744666 
    5000         4939    916.23066    61.909458    242970.62  0.004766856    2.4243198    5.1391727   0.19771644    1.0009031    1.0412204   0.18447988 
    5050         4989    906.18734   -18.307436    242970.62  0.004766856    2.5804428    5.2655367   0.21207563   0.95131717     1.251329   0.16572097 
    5100         5039      931.648    69.991057    242970.62  0.004766856    2.5561597    5.3166953   0.19095383   0.78682422    1.3439123   0.23446933 
    5150         5089    911.04088    18.827433    242970.62  0.004766856    2.6218835    5.3213588   0.23983931   0.81868531    1.3763196   0.18703926 
    5200         5139    976.37028    34.120625    242970.62  0.004766856    2.3852935    5.2783441   0.18300948   0.76101546    1.2498462   0.19142237 
    5250         5189    897.27275   0.43525283    242970.62  0.004766856    2.5453451    5.2040245   0.22585515   0.77435768    1.3144512   0.23068109 
    5300         5239    929.84808   0.27500655    242970.62  0.004766856    2.3478749    5.1030772   0.20430626   0.94069752    1.0365009    0.1663702 
    5350         5289    827.93379   -32.129714    242970.62  0.004766856    2.4822766       4.9355   0.18983238   0.97348357    1.1261509   0.19280977 
    5400         5339    779.98248   0.12265542    242970.62  0.004766856    2.4178246    4.7289651   0.21665368   0.95701547     1.032344   0.21181141 
    5450         5389     798.2281     11.68238    242970.62  0.004766856    2.2434359    4.6086394   0.22714415   0.92301174   0.89049888   0.20278115 
    5500         5439    810.80202   -34.872001    242970.62  0.004766856    2.2198519    4.6223127   0.17988961   0.99086112   0.86586968   0.18323144 
    5550         5489    876.93941   -22.147164    242970.62  0.004766856    2.2659149    4.8643452   0.19821458   0.91413442    0.9548293   0.19873655 
    5600         5539    888.22831   -42.578321    242970.62  0.004766856    2.5437496    5.1756297    0.1747498    1.0204539    1.1572689   0.19127688 
    5650         5589    906.59812    83.819929    242970.62  0.004766856    2.5851583    5.2714694   0.22565688   0.87093065    1.2311958   0.25737494 
    5700         5639    901.40525    3.4622838    242970.62  0.004766856    2.6248741    5.2957983   0.18560986   0.93762878    1.3053803   0.19625516 
    5750         5689     936.2656    62.745583    242970.62  0.004766856    2.4955285    5.2697463   0.18651428   0.84873995    1.2161398   0.24413443 
    5800         5739     920.5172     20.17323    242970.62  0.004766856     2.492893    5.2204472   0.17019457   0.82961714    1.3206468   0.17243443 
    5850         5789    953.44938   0.50080355    242970.62  0.004766856     2.299614    5.1247485   0.16823296   0.88681065     1.026163   0.21840736 
    5900         5839    884.07983   -28.249437    242970.62  0.004766856    2.4241406    5.0437285   0.18597356   0.85846026    1.1905355   0.18917124 
    5950         5889    798.43701    68.419116    242970.62  0.004766856    2.6149006     4.980723    0.2153568   0.90205524    1.2930302   0.20445833 
    6000         5939    787.90902   -56.782755    242970.62  0.004766856    2.6230531    4.9576804   0.20559458   0.95574527    1.2366719   0.22504134 
    6050         5989    886.41991    20.128251    242970.62  0.004766856    2.3748073     5.001329   0.19571863   0.90523195    1.0732172   0.20063947 
    6100         6039    885.62835   -82.115135    242970.62  0.004766856    2.5481252    5.1723014   0.20178722   0.88801961    1.2598173   0.19850104 
    6150         6089    1007.5749   -6.6656655    242970.62  0.004766856    2.3994959    5.3850081   0.20183151   0.71344187     1.276769    0.2074536 
    6200         6139    1033.2097    69.959738    242970.62  0.004766856    2.4418701    5.5033399   0.19740696    0.6541837     1.387466   0.20281345 
    6250         6189    1020.8424    53.062507    242970.62  0.004766856    2.4715969    5.4964216   0.18067287   0.70131388    1.3464903   0.24311987 
    6300         6239    980.04398   -13.662037    242970.62  0.004766856     2.507686    5.4116221   0.19717269   0.85328679    1.2777226   0.17950394 
    6350         6289     914.4441    57.321958    242970.62  0.004766856     2.545996    5.2555552   0.19209865   0.80325508    1.3450263   0.20561589 
    6400         6339     873.5801    30.530589    242970.62  0.004766856    2.5413373    5.1298138   0.19372458   0.79646633    1.3887917   0.16235468 
    6450         6389    870.36362    18.724896    242970.62  0.004766856     2.490174    5.0691199   0.18123641   0.82324262    1.2602699   0.22542514 
    6500         6439     863.1439    48.485588    242970.62  0.004766856    2.5128606    5.0704139   0.17299978   0.84263765     1.262622   0.23460114 
    6550         6489    904.03072   -98.976252    242970.62  0.004766856    2.3985571    5.0772609   0.16016768   0.84577523    1.1927177   0.19989657 
    6600         6539    1011.6208    56.964903    242970.62  0.004766856    2.1080491    5.1055494   0.20281258   0.70387064    1.0169157   0.18445025 
    6650         6589    907.74667   -74.515066    242970.62  0.004766856    2.4703011    5.1600154   0.15141083   0.86183587    1.2402087   0.21684568 
    6700         6639    967.23607     122.3521    242970.62  0.004766856    2.3648835    5.2308689   0.22249537   0.72992945    1.2043121    0.2081466 
    6750         6689    955.66897   -62.469887    242970.62  0.004766856    2.4987173    5.3304287   0.16243476   0.91909674    1.2281951   0.18899073 
    6800         6739      989.111   -32.114128    242970.62  0.004766856    2.5060616    5.4368639   0.19132105   0.86352619    1.2366218   0.21459257 
    6850         6789    957.87164   -10.685323    242970.62  0.004766856    2.7358125    5.5740504   0.25033463    1.0068214     1.239604   0.23905249 
    6900         6839    989.50398    7.9951848    242970.62  0.004766856     2.725091    5.6570577   0.15732483    1.0047567    1.4006498   0.16235968 
    6950         6889    964.25039   -22.020865    242970.62  0.004766856    2.7096153    5.5667539   0.21893557   0.94621301    1.3019913   0.24247545 
    7000         6939      972.486     86.44727    242970.62  0.004766856    2.4388611    5.3204025   0.23229287    0.8870501    1.0950076   0.22451061 
    7050         6989    868.77217   -57.850565    242970.62  0.004766856    2.5426534    5.1168836   0.17241906    0.8555848    1.3129224    0.2017271 
    7100         7039    898.88089    82.103134    242970.62  0.004766856    2.3600325    5.0234769   0.22669392   0.78647914    1.1311085   0.21575092 
    7150         7089    816.54259   -140.84562    242970.62  0.004766856    2.5972769    5.0167474    0.1915247    1.0012811    1.1867069   0.21776425 
    7200         7139    882.87627    132.05846    242970.62  0.004766856    2.4244665    5.0404881   0.22161231   0.94900873    1.0472291   0.20661633 
    7250         7189    831.72311   -96.343477    242970.62  0.004766856    2.6391239    5.1035753   0.18030121    1.0211715    1.2298806   0.20777056 
    7300         7239    869.80301    32.714881    242970.62  0.004766856    2.6446839    5.2219686   0.22239898    0.9679606    1.2530695   0.20125483 
    7350         7289    901.57754   -72.518327    242970.62  0.004766856    2.7101347    5.3815695   0.17389578     1.008564    1.3258327   0.20184221 
    7400         7339    1014.9593    81.023333    242970.62  0.004766856    2.5313074    5.5386999   0.22204752   0.89556002    1.2061763   0.20752363 
    7450         7389    972.32868   -57.687693    242970.62  0.004766856    2.7921541    5.6732292    0.1822235   0.94648543    1.4392992   0.22414594 
    7500         7439    1043.2841    37.116399    242970.62  0.004766856    2.6212258    5.7125467   0.22163978   0.93791338    1.3065632   0.15510946 
    7550         7489    979.98788    -2.083349    242970.62  0.004766856    2.5996409    5.5034107   0.18799759   0.98156823    1.1983728   0.23170225 
    7600         7539    933.63297    22.197823    242970.62  0.004766856    2.4361629    5.2025801   0.22333815   0.87621811    1.1390112   0.19759549 
    7650         7589    920.07522   -3.2328267    242970.62  0.004766856    2.3283076    5.0545522   0.19512469   0.79800252    1.1331853   0.20199505 
    7700         7639    882.67443    4.7400045    242970.62  0.004766856    2.3766854     4.992109   0.20596167   0.79507666    1.1620768   0.21357031 
    7750         7689    883.65844   -13.936031    242970.62  0.004766856    2.3543492    4.9726885    0.1967288    0.8249627    1.1315613   0.20109637 
    7800         7739    920.48854    2.8933823    242970.62  0.004766856    2.2695271    4.9969964   0.21818942   0.75254883     1.071185   0.22760385 
    7850         7789    904.22004   -23.091603    242970.62  0.004766856    2.4086734    5.0879381   0.21483976    0.7637055    1.1953686   0.23475958 
    7900         7839    861.03598    100.91289    242970.62  0.004766856      2.69482    5.2461274   0.27245738   0.91733876    1.2963641    0.2086598 
    7950         7889    833.00432    21.680061    242970.62  0.004766856    2.9346528    5.4029005   0.21912629    1.1826536    1.3247431   0.20812969 
    8000         7939    972.23621   -30.764414    242970.62  0.004766856    2.5988538    5.4796549   0.18934767    1.0462591     1.181088     0.182159 
    8050         7989    936.40948    55.047691    242970.62  0.004766856    2.6847361    5.4593803   0.23507114   0.99569164    1.2502335   0.20373988 
    8100         8039    914.89635   -78.315309    242970.62  0.004766856     2.557698    5.2685973   0.16622505   0.87540921    1.3010914   0.21497239 
    8150         8089    882.53885    74.625698    242970.62  0.004766856    2.3432375    4.9582593   0.22534285     0.749001    1.1539935   0.21490015 
    8200         8139    825.56692    17.896621    242970.62  0.004766856    2.3808784    4.8270886   0.23459028   0.75394795     1.185229   0.20711122 
    8250         8189    846.78589   -15.803783    242970.62  0.004766856    2.3153281    4.8244115   0.19146759   0.74581605     1.185767   0.19227746 
    8300         8239    848.12306     57.43688    242970.62  0.004766856    2.3868541    4.8998997   0.22159027   0.77675844    1.2093022   0.17920318 
    8350         8289    904.53021   -40.545791    242970.62  0.004766856    2.3513506    5.0315343   0.16596558   0.78475377    1.2141219   0.18650933 
    8400         8339    903.54024     7.331205    242970.62  0.004766856    2.5079601    5.1852104   0.21756591   0.81565686    1.2717228   0.20301451 
    8450         8389    918.02685    71.585028    242970.62  0.004766856    2.5794255    5.2996006   0.18844991    0.8330924    1.3634741   0.19440906 
    8500         8439    965.59107   -57.595491    242970.62  0.004766856    2.4965719    5.3576831   0.18959152   0.88467052    1.2240389   0.19827096 
    8550         8489    932.56754    62.840888    242970.62  0.004766856    2.5867907    5.3500509   0.23477636   0.89225435    1.2655772   0.19418276 
    8600         8539    899.26405   -63.584143    242970.62  0.004766856    2.6357401    5.3003199   0.19485417   0.87802807    1.3623817   0.20047617 
    8650         8589    854.28329    0.8772583    242970.62  0.004766856    2.6604566    5.1917553   0.24739034    0.8441327    1.3767676   0.19216591 
    8700         8639    907.44871    6.7113843    242970.62  0.004766856    2.2439325     4.932764   0.19035757   0.66466081     1.169517   0.21939718 
    8750         8689    845.20739    19.323636    242970.62  0.004766856    2.1511826    4.6555888   0.18708127   0.60668066    1.1612131   0.19620752 
    8800         8739    806.80018    3.5062948    242970.62  0.004766856     2.225818    4.6164211   0.20546044   0.67346277    1.1286271   0.21826769 
    8850         8789    803.04212   -30.303127    242970.62  0.004766856    2.3328389    4.7123066   0.17526928   0.78685863      1.18982   0.18089098 
    8900         8839    787.78132    24.157171    242970.62  0.004766856    2.5384782    4.8727271   0.17851541    0.7674752    1.3831429   0.20934471 
    8950         8889    864.58873    44.971122    242970.62  0.004766856    2.4812327    5.0430672   0.22738475   0.82934216     1.199579   0.22492684 
    9000         8939    888.72073   -27.107167    242970.62  0.004766856    2.5419983    5.1753375   0.16534782   0.99950932    1.1541755   0.22296568 
    9050         8989    970.63893    6.8165454    242970.62  0.004766856    2.3963916    5.2724599   0.19277267   0.74775535    1.2792094   0.17665419 
    9100         9039     1005.745    29.546272    242970.62  0.004766856    2.3291587    5.3092486   0.17654688    0.6886654    1.2592183   0.20472817 
    9150         9089     967.2435    17.224365    242970.62  0.004766856    2.4507075    5.3167149   0.18517122   0.74113518    1.3438519   0.18054923 
    9200         9139    928.19664   -10.559695    242970.62  0.004766856    2.5091624    5.2594714   0.22121075   0.80752254    1.2853441   0.19508504 
    9250         9189    922.40109   -14.538498    242970.62  0.004766856    2.3908638    5.1240002   0.19654538   0.88001605    1.1260201   0.18828229 
    9300         9239    808.50818   -18.748088    242970.62  0.004766856    2.5200788    4.9157428   0.19178257   0.85908632    1.2600241   0.20918582 
    9350         9289    777.90988  -0.82989618    242970.62  0.004766856    2.4679528     4.772952   0.18106514   0.88867054    1.2446862   0.15353085 
    9400         9339    732.36733    22.978509    242970.62  0.004766856    2.5647421    4.7347957   0.21498831   0.84866522    1.2964171   0.20467152 
    9450         9389    767.63177    14.279803    242970.62  0.004766856    2.5307793    4.8053238   0.20153784   0.74832429    1.3949232   0.18599396 
    9500         9439    843.71265    18.377572    242970.62  0.004766856    2.4467156    4.9466929   0.20597285   0.82163405    1.2127413   0.20636744 
    9550         9489    904.64961    18.010009    242970.62  0.004766856    2.3811617    5.0616992   0.18688374   0.69604018    1.3132138   0.18502396 
    9600         9539    852.07252   -25.660953    242970.62  0.004766856    2.5842213    5.1089694   0.17162131   0.80816984    1.3601244   0.24430577 
    9650         9589    879.81538    35.357741    242970.62  0.004766856    2.5395715    5.1465235   0.22654223   0.65021599    1.4443827   0.21843058 
    9700         9639      928.965    23.489793    242970.62  0.004766856    2.4328553     5.185441   0.18091288   0.67648084    1.3835448    0.1919168 
    9750         9689    922.92209    46.883275    242970.62  0.004766856     2.491511    5.2261911   0.22011516   0.71075578    1.3819903   0.17864972 
    9800         9739    865.30647   -15.414735    242970.62  0.004766856    2.6640659    5.2280271    0.2190748   0.93862415    1.2804718   0.22589514 
    9850         9789    899.52875    -49.60993    242970.62  0.004766856    2.5215299     5.186894   0.19835689    1.0050866    1.1533739   0.16471255 
    9900         9839    887.48368  -0.17447443    242970.62  0.004766856    2.4376073     5.067281   0.18861588   0.93386168    1.1053225   0.20980726 
    9950         9889    874.70558    28.683381    242970.62  0.004766856    2.3042208    4.8960322   0.18939336    0.8833986    1.0523402   0.17908862 
   10000         9939     816.5399   -23.914907    242970.62  0.004766856    2.3304428    4.7499053   0.18776784   0.79757679    1.1231151   0.22198304 
   10050         9989    849.91128    74.790107    242970.62  0.004766856    2.1930706    4.7114148   0.20516866   0.72860738    1.0731405   0.18615404 
   10100        10039    850.59078   -86.130973    242970.62  0.004766856    2.2527581    4.7731157   0.14946038   0.86652856    1.0240992   0.21266996 
   10150        10089    879.90363    54.714058    242970.62  0.004766856    2.3991738    5.0063873   0.19269466   0.70150092    1.2720953   0.23288291 
   10200        10139    874.82106    15.813483    242970.62  0.004766856    2.6602873    5.2524408   0.24389445   0.89206411    1.3131353   0.21119345 
   10250        10189    891.22516    17.436672    242970.62  0.004766856    2.6833117    5.3240717   0.25834607    0.9142049    1.2737002   0.23706055 
   10300        10239    873.04568    49.601629    242970.62  0.004766856    2.7277734    5.3146664   0.22787233   0.90901593    1.3720334   0.21885175 
   10350        10289    937.66878   -66.102711    242970.62  0.004766856    2.4741212    5.2524967   0.16599322   0.90428199    1.1838299   0.22001607 
   10400        10339    893.11486    65.444208    242970.62  0.004766856     2.507086    5.1534453   0.20527317   0.78787168    1.3220217   0.19191941 
   10450        10389    875.14491   -4.4440863    242970.62  0.004766856    2.4558634    5.0489765    0.2157064   0.84065248     1.167451   0.23205347 
   10500        10439    886.79395    -60.30128    242970.62  0.004766856    2.3238733    4.9515033   0.22798363   0.79276195    1.1052281   0.19789964 
   10550        10489    917.02904   -18.224191    242970.62  0.004766856    2.1548817    4.8721003   0.20903482   0.70825457   0.99325109    0.2443412 
   10600        10539    827.53606    14.394206    242970.62  0.004766856    2.3667493    4.8187943   0.20039419   0.72871826    1.2409467   0.19669022 
   10650        10589    833.21898    83.778144    242970.62  0.004766856    2.3287143     4.797598    0.2261595   0.69210861    1.1478184   0.26262772 
   10700        10639    812.45482   -73.365865    242970.62  0.004766856    2.4861426    4.8935008   0.21728458   0.80106508    1.2295162   0.23827681 
   10750        10689    911.52995    35.303594    242970.62  0.004766856    2.3914665    5.0923909   0.19443203   0.78137423    1.1811184   0.23454176 
   10800        10739    955.87061   -25.008206    242970.62  0.004766856    2.4491361    5.2814449   0.21303723    0.7512179    1.2984073   0.18647369 
   10850        10789    954.48322    19.888612    242970.62  0.004766856    2.5358281     5.364026   0.19672357   0.85368115    1.2481544     0.237269 
   10900        10839    952.97682    31.456088    242970.62  0.004766856     2.536587    5.3603213   0.25989933   0.70993377    1.3054734   0.26128052 
   10950        10889     977.4518    26.676467    242970.62  0.004766856    2.3907203    5.2869756   0.21577308   0.72703869    1.2323113   0.21559729 
   11000        10939    908.45973    11.865065    242970.62  0.004766856    2.4576203    5.1494474   0.18968613   0.74102682    1.3173959   0.20951146 
   11050        10989    842.87573    3.6918057    242970.62  0.004766856    2.4735236     4.971021   0.20118254   0.79705367    1.2799451   0.19534225 
   11100        11039    818.08129    44.758437    242970.62  0.004766856    2.4245333    4.8485631   0.17505884    0.7368318    1.3291541    0.1834885 
   11150        11089    792.47331   -29.653481    242970.62  0.004766856    2.4536585    4.8018102   0.18864836   0.74571202    1.3379254   0.18137272 
   11200        11139     843.0387    44.555304    242970.62  0.004766856    2.3408093    4.8387896   0.22478196   0.74723593    1.1892784   0.17951307 
   11250        11189    804.91426   -101.17105    242970.62  0.004766856    2.6057262    4.9907412   0.21179195    0.8959958    1.2955085    0.2024299 
   11300        11239    990.46644    54.341508    242970.62  0.004766856    2.4082517    5.3430703   0.20019349   0.82011941    1.2187985   0.16914033 
   11350        11289    1012.5023   -14.300328    242970.62  0.004766856    2.5136294    5.5137417   0.21368568   0.90345254    1.1820359   0.21445531 
   11400        11339    1015.8435    50.037384    242970.62  0.004766856    2.4511225     5.461135   0.21933002    0.7714123    1.2501744   0.21020578 
   11450        11389      920.987      35.4293    242970.62  0.004766856    2.5959807     5.324927   0.23055783   0.72722789    1.4275412   0.21065378 
   11500        11439    920.76714   -19.888413    242970.62  0.004766856    2.4290932    5.1573881   0.20640716   0.78665994    1.2226203   0.21340583 
   11550        11489    835.50878    7.5948389    242970.62  0.004766856    2.5496978    5.0253664   0.21964781   0.79516881    1.3338043   0.20107684 
   11600        11539    810.05859    42.954115    242970.62  0.004766856     2.537367     4.937625   0.23592264   0.84368987    1.2454216   0.21233283 
   11650        11589    903.89137    -18.81616    242970.62  0.004766856    2.2167794    4.8950702   0.22090903   0.75758569    1.0032816   0.23500305 
   11700        11639    875.50299    12.457086    242970.62  0.004766856    2.3328432    4.9270173   0.25437008   0.75812631    1.1332906   0.18705619 
   11750        11689    870.73313   -85.655076    242970.62  0.004766856    2.4451518    5.0251926   0.21181053    0.7516505    1.2586407    0.2230501 
   11800        11739    999.12851    53.259028    242970.62  0.004766856     2.275068    5.2355528   0.20469189    0.7038437    1.1496812   0.21685117 
   11850        11789    979.55931   -53.954689    242970.62  0.004766856    2.5393531     5.441853   0.17180238   0.87850486    1.2562614   0.23278439 
   11900        11839      988.412    64.100522    242970.62  0.004766856    2.5671152    5.4958463   0.21096326    0.6203146    1.4682779   0.26755936 
   11950        11889    972.63028    -45.10336    242970.62  0.004766856    2.5699795    5.4519483   0.20154749   0.76431097    1.3872218   0.21689921 
   12000        11939    978.40597   -33.127952    242970.62  0.004766856    2.4377199    5.3368024   0.17305133   0.80832364    1.2270818   0.22926314 
   12050        11989     877.2221   -3.1007841    242970.62  0.004766856    2.6434101    5.2426781   0.20266369     0.918215    1.2929211   0.22961035 
   12100        12039    921.27472    25.138316    242970.62  0.004766856    2.4479319    5.1777308   0.20377101   0.76271434    1.2473785   0.23406805 
   12150        12089     887.0314   -7.2156717    242970.62  0.004766856    2.5058186    5.1341522   0.20036411   0.79281612    1.2813005   0.23133786 
   12200        12139    894.62777    42.064592    242970.62  0.004766856    2.4364967    5.0873388   0.20284565    0.7764973    1.2240782    0.2330756 
   12250        12189     921.6056   -1.6261266    242970.62  0.004766856    2.3205419    5.0513212   0.19005773   0.77234046    1.1443884   0.21375531 
   12300        12239    883.24691   -19.009058    242970.62  0.004766856    2.4008186    5.0179385   0.19814807   0.72337775     1.262365   0.21692777 
   12350        12289    928.67573   -32.511071    242970.62  0.004766856    2.2316185     4.983347   0.22011062   0.67063505    1.0985012   0.24237156 
   12400        12339    824.54454   -45.064137    242970.62  0.004766856    2.5257428    4.9689236   0.18614766   0.88785005    1.2593799   0.19236522 
   12450        12389    897.80442    23.247268    242970.62  0.004766856    2.3382373    4.9984921     0.236718   0.76660613    1.1008137   0.23409953 
   12500        12439    903.67666    54.997417    242970.62  0.004766856    2.4333766    5.1110312   0.22038411   0.82037965    1.2354716   0.15714126 
   12550        12489    894.25963   -66.156467    242970.62  0.004766856    2.5850154    5.2347667   0.18931352   0.90373372    1.2687632   0.22320492 
   12600        12539    927.69747    50.399409    242970.62  0.004766856    2.6109174    5.3597473   0.25726465   0.82396149    1.3156933   0.21399801 
   12650        12589     908.6174   -45.353324    242970.62  0.004766856    2.7147548    5.4070492   0.18634703   0.86389989    1.4296191   0.23488884 
   12700        12639     942.6158    72.757715    242970.62  0.004766856    2.5780121     5.371046   0.26252714   0.82550156    1.2716909   0.21829244 
   12750        12689     869.8247    2.3715988    242970.62  0.004766856    2.6515218    5.2288708   0.21188392   0.84536961    1.3459747   0.24829361 
   12800        12739    902.81803    40.536607    242970.62  0.004766856    2.3517431    5.0268535   0.16993028    0.7471838    1.2295702   0.20505883 
   12850        12789    843.55207   -47.038442    242970.62  0.004766856    2.3806545    4.8801559   0.18808765   0.73295642    1.2639022   0.19570814 
   12900        12839    853.48931    36.015481    242970.62  0.004766856    2.3104789    4.8394251   0.20610691   0.71500822     1.185793   0.20357077 
   12950        12889     828.5494   -52.212279    242970.62  0.004766856    2.4209025      4.87595   0.18337548   0.71996522    1.2997971   0.21776467 
   13000        12939    863.74961    27.278553    242970.62  0.004766856    2.4084325    4.9677805   0.19417855   0.73382307    1.2818248   0.19860604 
   13050        12989    850.95603    18.043718    242970.62  0.004766856    2.5415311    5.0629709   0.20147414   0.75351683     1.393428    0.1931121 
   13100        13039    914.77284   -61.037245    242970.62  0.004766856    2.4022037     5.112737   0.19159745   0.79973854    1.2108664   0.20000136 
   13150        13089    893.18595    99.269247    242970.62  0.004766856    2.4903739    5.1369438   0.22478629   0.72400874    1.3374618   0.20411703 
   13200        13139    861.15892   -12.667308    242970.62  0.004766856    2.5999383      5.15161   0.21111185   0.83170255    1.3511399   0.20598404 
   13250        13189    930.80912    54.952714    242970.62  0.004766856    2.3931158    5.1511657   0.22086168   0.85946222    1.1232867   0.18950522 
   13300        13239    838.76554   -63.336657    242970.62  0.004766856    2.6537498    5.1390684   0.21207023   0.94523729    1.2869804    0.2094619 
   13350        13289    907.01562    44.755202    242970.62  0.004766856    2.4223924    5.1099406   0.21427428   0.80438879    1.2122227   0.19150666 
   13400        13339    888.19725   -96.997491    242970.62  0.004766856    2.4232099    5.0549979   0.18819385    0.8490563    1.1877519   0.19820777 
   13450        13389    860.27459    71.558612    242970.62  0.004766856     2.390356    4.9394074   0.21668749   0.69679351    1.2592072   0.21766786 
   13500        13439    840.23218   -55.453607    242970.62  0.004766856    2.3350747    4.8247391   0.16086791   0.79452704    1.2042407   0.17543904 
   13550        13489    840.75917    25.428975    242970.62  0.004766856    2.2682905    4.7595164   0.18663922   0.74321885    1.1470923   0.19134014 
   13600        13539    841.90787   -14.460848    242970.62  0.004766856    2.3027294     4.797359   0.16819414   0.68549243    1.2469674   0.20207545 
   13650        13589    905.56895    19.324088    242970.62  0.004766856    2.2706429    4.9539045   0.20101184   0.66961667    1.2135532    0.1864612 
   13700        13639    889.49777   -20.608941    242970.62  0.004766856    2.5473696    5.1830112   0.15820181   0.98110531    1.1896531   0.21840939 
   13750        13689    887.33181    15.622563    242970.62  0.004766856    2.7056045    5.3348282   0.23173594   0.88590415    1.4061169   0.18184742 
   13800        13739    924.95695   -59.798751    242970.62  0.004766856    2.6218587    5.3625682   0.19520426     0.921474    1.2992882   0.20589218 
   13850        13789    955.80258    31.840678    242970.62  0.004766856     2.492872    5.3249792   0.19072075   0.89066227    1.2187823   0.19270674 
   13900        13839    878.50202   -30.103624    242970.62  0.004766856     2.630976    5.2340365   0.20034309   0.80893643    1.4036073   0.21808918 
   13950        13889     938.6307    98.517973    242970.62  0.004766856    2.3429254    5.1241512   0.20585189    0.7928125    1.1507077   0.19355339 
   14000        13939    862.05276   -66.710926    242970.62  0.004766856    2.4682101    5.0225303   0.17623104   0.67698301    1.3847743   0.23022174 
   14050        13989    899.99881     40.54473    242970.62  0.004766856    2.2956787    4.9624356   0.22234166   0.67778698    1.1680646   0.22748551 
   14061        14000    879.45444    25.426915    242970.62  0.004766856    2.3468061    4.9526887   0.19092086   0.71066514    1.2367489   0.20847123 
Loop time of 1.72932 on 8 procs for 10000 steps with 168 atoms

Performance: 499.619 ns/day, 0.048 hours/ns, 5782.632 timesteps/s
99.9% CPU use with 8 MPI tasks x no OpenMP threads

MPI task timing breakdown:
Section |  min time  |  avg time  |  max time  |%varavg| %total
---------------------------------------------------------------
Pair    | 0.013514   | 0.082138   | 0.25842    |  26.5 |  4.75
Bond    | 0.060525   | 0.22868    | 0.54832    |  33.3 | 13.22
Kspace  | 0.68696    | 1.1011     | 1.2945     |  18.5 | 63.67
Neigh   | 0.041171   | 0.041645   | 0.042201   |   0.2 |  2.41
Comm    | 0.13485    | 0.19535    | 0.22758    |   6.6 | 11.30
Output  | 0.016717   | 0.017033   | 0.01912    |   0.6 |  0.98
Modify  | 0.030701   | 0.051377   | 0.069538   |   5.9 |  2.97
Other   |            | 0.01198    |            |       |  0.69

Nlocal:        21.0000 ave          41 max          14 min
Histogram: 4 1 1 0 0 1 0 0 0 1
Nghost:        98.0000 ave         125 max          73 min
Histogram: 1 1 1 0 1 1 0 2 0 1
Neighs:        177.500 ave         392 max          56 min
Histogram: 2 0 2 2 0 0 1 0 0 1

Total # of neighbors = 1420
Ave neighs/atom = 8.4523810
Ave special neighs/atom = 9.1428571
Neighbor list builds = 594
Dangerous builds = 12
undump dumpeq2


write_data   system_after_eq2_reorient.data
System init for write_data ...
PPPM initialization ...
  using 12-bit tables for long-range coulomb (../kspace.cpp:340)
  G vector (1/distance) = 0.077713503
  grid = 4 4 4
  stencil order = 5
  estimated absolute RMS force accuracy = 0.033197132
  estimated relative force accuracy = 9.9972176e-05
  using double precision KISS FFT
  3d grid and FFT values/proc = 343 8

unfix fxnvt


# -- equilibration part 3: Equilibrating the density (NPT) --

# Originally, the simulation box (in "system.data" and "system.lt") was
# unrealistically large.  The spacing between the molecules was large also.
# I did this to enable the molecules to move freely and reorient themselves.
# After doing that, we should run the simulation under NPT conditions to
# allow the simulation box to contract to it's natural size.
# To help it collapse, we begin the simulation at a relatively high pressure
# Later on, we will slowly decrease it to 1 bar.

# First cool the system. (Do this at high pressure to avoid bubble formation.)

dump dumpeq3 all custom 200 traj_eq3_npt.lammpstrj id mol type x y z ix iy iz
fix fxnpt all npt temp 900.0 260.0 100.0 iso 500.0 500.0 1000.0 drag 2.0

timestep        1.0
run             20000
PPPM initialization ...
  using 12-bit tables for long-range coulomb (../kspace.cpp:340)
  G vector (1/distance) = 0.077713503
  grid = 4 4 4
  stencil order = 5
  estimated absolute RMS force accuracy = 0.033197132
  estimated relative force accuracy = 9.9972176e-05
  using double precision KISS FFT
  3d grid and FFT values/proc = 343 8
Per MPI rank memory allocation (min/avg/max) = 11.96 | 12.19 | 12.42 Mbytes
Step Time Temp Press Volume Density PotEng TotEng E_pair E_bond E_angle E_dihed 
   14061        14000    879.45444    25.426915    242970.62  0.004766856    2.3468061    4.9526887   0.19092086   0.71066514    1.2367489   0.20847123 
   14100        14039    866.92456    1.6757317    240081.19 0.0048242263    2.3938588    4.9626144   0.19992046    0.7295077    1.2733684    0.1910622 
   14150        14089    866.39992    47.721161    229064.42 0.0050562457    2.4323515    4.9995526   0.21639992   0.83853243    1.1434064   0.23401275 
   14200        14139     882.5559   -17.511905    214142.12 0.0054085856    2.4063891    5.0214615   0.21763184   0.79809096    1.1785583   0.21210808 
   14250        14189    824.67009   -65.025705    199838.53 0.0057957089    2.6074732    5.0510261   0.20822092   0.92411912    1.2747934    0.2003398 
   14300        14239    843.42358    122.62172     187784.4 0.0061677432    2.5685243     5.067645   0.23654982   0.89482112    1.2626034   0.17454996 
   14350        14289    845.78831   -95.372143     177392.6 0.0065290546    2.5755498    5.0816774   0.18387239   0.91005977    1.2998946   0.18172306 
   14400        14339    930.20754    235.31971    167798.95 0.0069023434    2.3143284    5.0705958   0.22683837   0.70201748    1.2198493   0.16562328 
   14450        14389    897.75768   -73.286121    158896.77 0.0072890465    2.4264796    5.0865959   0.13040366   0.81884567    1.2916953   0.18553501 
   14500        14439    956.54425    117.96959    150503.18  0.007695558    2.2384385    5.0727433   0.21897135   0.68825035    1.1713609   0.15985584 
   14550        14489    907.79603   -11.615645     142967.2 0.0081012008    2.3917396    5.0816002   0.19447362   0.77834329    1.2128434   0.20607933 
   14600        14539    927.90338    90.968447    136002.11  0.008516088     2.342442     5.091882   0.21546395   0.75615588    1.1640682   0.20675396 
   14650        14589    916.11029   -116.22766    129699.17 0.0089299413    2.3658878    5.0803841   0.18240608   0.83210392    1.1712307   0.18014708 
   14700        14639    893.99352    72.035237    123816.95 0.0093541795     2.436811    5.0857738   0.20843913   0.80786479    1.2013145    0.2191926 
   14750        14689    914.35771   -63.554217    118391.13 0.0097828776    2.3614957     5.070799   0.16677125   0.88092557    1.1158882   0.19791066 
   14800        14739    929.60598   -169.42179    113346.96  0.010218236    2.3166513    5.0711363   0.18418549    0.9264233    1.0195819   0.18646062 
   14850        14789    947.77715    16.152034    108619.23  0.010662992    2.2404154    5.0487427   0.21733401   0.81430657    1.0504483   0.15832654 
   14900        14839    909.45293   -21.350802    104229.21  0.011112105    2.3414457    5.0362158    0.1874492   0.74242163    1.2101964   0.20137847 
   14950        14889    921.65044   -108.62667    100092.24  0.011571386    2.2831333    5.0140455   0.18935553   0.80715329    1.1124337    0.1741908 
   15000        14939    959.73889     258.9223    96215.997  0.012037561    2.1650896    5.0088603   0.21352832   0.67149951    1.0993928   0.18066895 
   15050        14989    930.08625   -363.48241    92589.084  0.012509099    2.2306307    4.9865387   0.15723339   0.74945986    1.1114144   0.21252303 
   15100        15039    897.67262    246.47836    89149.742  0.012991692    2.3225988     4.982463   0.21171373   0.73631322    1.1609487   0.21362317 
   15150        15089    876.14511   -100.84562    85923.304  0.013479532    2.3734454    4.9695222   0.17749227   0.77417169    1.2442353   0.17754617 
   15200        15139    939.35833    128.96911     82891.36  0.013972578    2.1710468    4.9544286   0.14954466   0.73307617    1.0945302   0.19389579 
   15250        15189    903.31348    231.54024    79986.854  0.014479954    2.2666162    4.9431947   0.20770278   0.70429001    1.1729795    0.1816439 
   15300        15239    847.70172   -10.645539    77305.074  0.014982276     2.439906    4.9517031   0.18559854   0.70147805    1.3169193   0.23591017 
   15350        15289    938.13119    150.50772    74715.176  0.015501616    2.1608037    4.9405494   0.23395076   0.66295816    1.0766451   0.18724977 
   15400        15339    821.68364   -278.43838    72339.699  0.016010655      2.50229    4.9369938   0.19598213   0.89572069    1.2064432   0.20414401 
   15450        15389    832.99957    113.17494    70066.824   0.01653002    2.4507439    4.9189775   0.22227347   0.79193674     1.192177   0.24435667 
   15500        15439    854.79691   -60.292713    67922.928  0.017051768    2.3749471    4.9077678   0.17535084   0.81732152    1.2033834   0.17889136 
   15550        15489    906.39161    32.389826    65850.078  0.017588528    2.2141112    4.8998104   0.20213223   0.71519028    1.0810416   0.21574709 
   15600        15539    886.77175   -34.945224    63912.967  0.018121612    2.2616386    4.8892028   0.18624649   0.64194305    1.2715944   0.16185464 
   15650        15589      853.574    135.95959    62036.673  0.018669698    2.3403968    4.8695939   0.22600419   0.69564627    1.1387951   0.27995129 
   15700        15639    850.77811     179.6471    60264.154  0.019218821    2.3381827    4.8590954   0.18965645   0.71062404    1.2178374   0.22006477 
   15750        15689    811.96749   -35.748689    58565.446  0.019776268    2.4603745    4.8662887   0.22499525   0.74963691    1.2651153   0.22062708 
   15800        15739     901.8168    155.95162    56951.279  0.020336786    2.1693788    4.8415225   0.19288928   0.66991213    1.0791193   0.22745809 
   15850        15789    834.31679    56.050295    55432.135  0.020894125    2.3656916    4.8378283   0.18839271   0.60582801    1.3440135    0.2274574 
   15900        15839    912.19302    355.23618    53964.967  0.021462182    2.1173693    4.8202584   0.20526828   0.65113731    1.0702498   0.19071392 
   15950        15889    872.29946   -282.53556    52586.939  0.022024594    2.2162332    4.8009151     0.175885   0.67834334    1.1453053   0.21669958 
   16000        15939    887.69527    295.86622    51225.606  0.022609903    2.1552555    4.7855562   0.18747692   0.66685878    1.0995797   0.20134013 
   16050        15989    869.04595    155.93155    49936.769   0.02319345    2.1934787    4.7685201   0.21079661    0.6324425    1.1651707   0.18506884 
   16100        16039     841.2423    242.42207    48712.821  0.023776204    2.2599896     4.752647   0.15621728   0.67617449     1.211304   0.21629381 
   16150        16089    909.41676    223.25739    47519.629  0.024373212    2.0422622    4.7369252   0.17076332   0.75872619   0.95076054   0.16201219 
   16200        16139    859.07454    8.3741208    46416.944  0.024952224    2.1782954    4.7237909    0.1893446   0.74211499     1.022176   0.22465981 
   16250        16189    884.44719    86.844389    45380.458   0.02552213    2.0921675    4.7128439   0.15769321   0.65740375    1.0776734   0.19939713 
   16300        16239    865.89266      111.157    44354.539  0.026112457    2.1228793    4.6885773   0.19767938   0.59549695    1.1587426   0.17096033 
   16350        16289    810.18546    84.447507    43376.939  0.026700962    2.2687775    4.6694114   0.15413715   0.64106622    1.2737108    0.1998633 
   16400        16339    861.84574    321.17489     42405.04  0.027312932     2.118333    4.6720398   0.20130246   0.69686359    1.0345571   0.18560986 
   16450        16389    880.47355    -191.7964    41483.357  0.027919775    2.0432368     4.652139   0.17645084   0.77667343   0.91705792   0.17305461 
   16500        16439    852.82084    179.00735     40595.44  0.028530445     2.120698    4.6476634    0.1744063   0.70780546    1.0342809   0.20420538 
   16550        16489     858.7805    93.664294    39713.439  0.029164081    2.0860771    4.6307014   0.19966473   0.71506046    1.0037237   0.16762824 
   16600        16539    792.15403    257.13398    38893.014   0.02977928    2.2688182    4.6160238   0.17586474    0.6995127    1.1697184   0.22372243 
   16650        16589    784.58638    251.47861    38084.307  0.030411633    2.2773353    4.6021174   0.22758386   0.77738458    1.0572519   0.21511498 
   16700        16639    876.85591   -268.05068    37317.974  0.031036142    1.9836984    4.5818813   0.16750892   0.67446926   0.93252081   0.20919938 
   16750        16689    869.40486    48.121698    36577.367  0.031664553    1.9915879    4.5676929   0.17172068    0.6506268     1.025067   0.14417339 
   16800        16739    834.76722   -51.082845    35859.179  0.032298731    2.0801366     4.553608   0.20871631   0.69109957   0.96489166   0.21542911 
   16850        16789    850.98735    695.10031    35192.823  0.032910289    2.0195973    4.5411299   0.19459859   0.59882427     1.048737   0.17743748 
   16900        16839    823.32746   -387.85106    34554.061  0.033518664    2.0943821    4.5339566   0.14546706   0.70348954    1.0830222   0.16240332 
   16950        16889    899.18734    520.81531    33920.507  0.034144713     1.845676    4.5100284   0.18449214   0.66497832   0.80222749   0.19397802 
   17000        16939    853.01691   -579.47067    33319.426  0.034760682    1.9671253    4.4946717    0.1140993   0.71317085   0.99169525   0.14815992 
   17050        16989    826.23084    538.31997     32709.24  0.035409138      2.03698    4.4851574   0.17373247   0.65704775   0.99512629   0.21107349 
   17100        17039    857.57475    101.66609    32130.057   0.03604743      1.93004    4.4710915   0.16579773   0.69993686   0.88416589   0.18013948 
   17150        17089    797.97353    112.78033    31577.559  0.036678135    2.0999933    4.4644424   0.16560052   0.78338248   0.96842175   0.18258851 
   17200        17139    835.19826    393.44537    31049.985  0.037301338    1.9688604    4.4436089    0.1752873   0.68923734   0.91179144   0.19254432 
   17250        17189    828.45181   -234.06218    30555.937   0.03790445    1.9717687     4.426527   0.18372618   0.65263484     0.961355   0.17405267 
   17300        17239    840.77493    234.72505    30070.411  0.038516467    1.9211244     4.412397   0.17487156   0.55374465    1.0047921   0.18771604 
   17350        17289    806.41001    261.15485    29596.154  0.039133665    2.0122143    4.4016613   0.19877298   0.60890564   0.99788173   0.20665392 
   17400        17339    849.81236   -771.87328    29138.352  0.039748507    1.8631694    4.3812205   0.11014817   0.68246742   0.95005115   0.12050264 
   17450        17389    791.67128    422.09597    28663.591   0.04040687    2.0253146    4.3710897   0.18306381   0.64556484   0.96843706   0.22824888 
   17500        17439    793.92494    610.99989    28206.632  0.041061477    2.0104187    4.3628716    0.1631309   0.70466338   0.95183994   0.19078451 
   17550        17489      804.639   -196.71006    27763.081  0.041717487    1.9773651    4.3615644   0.13126007   0.68391658   0.99081966   0.17136877 
   17600        17539    792.46025     738.8815    27317.318  0.042398231    1.9995589    4.3476719   0.17208341   0.60204091    1.0968168   0.12861784 
   17650        17589    802.68217   -721.81452    26902.815  0.043051479    1.9458696    4.3242707   0.14249229   0.61228781     1.005545   0.18554443 
   17700        17639    832.10832    720.40795    26485.736  0.043729424    1.8358631     4.301456   0.17425373   0.51006198    1.0003032    0.1512442 
   17750        17689    787.25446   -231.58498    26097.293  0.044380311    1.9658343    4.2985222   0.16146548   0.61328345   0.99339436   0.19769104 
   17800        17739    769.33831    303.15466    25732.909  0.045008747     2.032345     4.311946   0.19946531   0.64546363    1.0186027   0.16881337 
   17850        17789    805.78171   -534.32905    25378.151  0.045637919    1.9197457     4.307331    0.1570641   0.68378051   0.90321597   0.17568513 
   17900        17839    770.11552    22.950739    25030.258  0.046272235    2.0212684    4.3031724   0.14954973   0.63141216    1.0137204   0.22658617 
   17950        17889    806.91229    169.78912    24674.484   0.04693942    1.9000066    4.2909418   0.16158149   0.67687235    0.8740608   0.18749192 
   18000        17939     788.7864    81.346326    24335.121   0.04759401    1.9491351    4.2863621   0.19185732   0.69020192   0.89089899   0.17617684 
   18050        17989    767.82846   -157.65157    24001.458  0.048255651    2.0010902    4.2762175   0.14943792   0.68276219   0.99401774   0.17487234 
   18100        18039    802.83321     1101.489    23675.128  0.048920791    1.8856455    4.2644942   0.17540737   0.59959731    0.9401962   0.17044461 
   18150        18089    775.52541   -556.04115    23357.905  0.049585181    1.9619145    4.2598484    0.1490121   0.68427151   0.97311181   0.15551911 
   18200        18139    785.12801    316.75738    23045.825   0.05025665    1.9208472    4.2472342   0.13604808   0.65231653   0.95129187   0.18119074 
   18250        18189     771.0963    145.14065     22734.39  0.050945109    1.9518606    4.2366707    0.1807232    0.5701028    1.0276243   0.17341028 
   18300        18239    800.38904    256.42055    22436.716   0.05162101    1.8657783    4.2373847   0.13944095   0.56812195    1.0070011    0.1512143 
   18350        18289    792.44864    344.22002    22136.584  0.052320898    1.8755069    4.2235855   0.19774696   0.60317599   0.89341597   0.18116803 
   18400        18339     755.4965   -75.654164     21851.07  0.053004543    1.9808558    4.2194426   0.15238289   0.68755227   0.98997258   0.15094805 
   18450        18389    777.61002     268.6059    21566.426  0.053704122    1.9061894    4.2103001   0.16181077   0.69714364   0.89634018   0.15089483 
   18500        18439    764.75227    157.38284    21285.255  0.054413535    1.9381973    4.2042096   0.18761698    0.5869043     1.024278   0.13939799 
   18550        18489    733.07063    115.79104     21021.15  0.055097175    2.0237755     4.195913   0.17644712   0.63297022    1.0197037    0.1946545 
   18600        18539    779.27324    -249.0515    20753.518  0.055807694     1.863793     4.172832   0.15651772   0.56019217    1.0121079   0.13497525 
   18650        18589    752.24464    692.11187    20499.541  0.056499117    1.9467914    4.1757428   0.16211487   0.57706251    1.0442217   0.16339237 
   18700        18639    718.06532   -408.50398    20252.225  0.057189074    2.0357223     4.163398   0.13996661     0.622808    1.0831121    0.1898356 
   18750        18689    720.78552    244.60137    20002.589  0.057902803    2.0236398    4.1593757   0.15931435   0.61954099     1.078858   0.16592644 
   18800        18739    723.19414    -234.8618    19766.478  0.058594453    2.0073389    4.1502117   0.16460779   0.71876041   0.99158123   0.13238951 
   18850        18789    775.27091    225.35315    19536.973  0.059282776    1.8348587    4.1320384   0.13286405   0.59175383   0.96411627   0.14612452 
   18900        18839    753.35222    480.08399    19318.094  0.059954463    1.8946632    4.1268964   0.19440201   0.55848877   0.99565069   0.14612169 
   18950        18889    753.94178    648.87708    19130.313  0.060542971    1.8834297    4.1174098   0.12322967    0.6823036    0.9030516   0.17484481 
   19000        18939    706.81155    -479.1056    18939.427  0.061153167    2.0108217    4.1051518   0.18398566   0.61608391    1.0163126   0.19443953 
   19050        18989    758.91959    812.90835    18766.196  0.061717675    1.8570969    4.1058266   0.18481346   0.63377423   0.91649342    0.1220158 
   19100        19039    730.16027       69.496    18599.628  0.062270385    1.9322036    4.0957175   0.17097312   0.63775683   0.95893114   0.16454246 
   19150        19089    736.89632    1354.5486    18437.502  0.062817944    1.8908172    4.0742904   0.16564864   0.63110729   0.91761765    0.1764436 
   19200        19139    729.39667   -831.64298    18284.213  0.063344591    1.9053698    4.0666211   0.10446882    0.6164196    1.0091123   0.17536909 
   19250        19189    712.22697    1588.9674    18112.371  0.063945576    1.9557301    4.0661065   0.21439308   0.58377486    0.9689615   0.18860069 
   19300        19239    691.64843   -652.73161    17960.262  0.064487141    2.0100031    4.0594039    0.1200048   0.65991784    1.0540572   0.17602333 
   19350        19289     769.8766    1726.2843     17795.93  0.065082632    1.7703206    4.0515167   0.15384538   0.56599313   0.86915476   0.18132735 
   19400        19339    733.49069   -750.76773    17637.606  0.065666847    1.8591139    4.0324961   0.14035295   0.60051062   0.94909481   0.16915554 
   19450        19389    755.68514    657.04235    17472.729  0.066286496    1.7799205    4.0190663   0.15455007   0.59695327   0.84948775    0.1789294 
   19500        19439    743.49056   -210.11707    17297.442  0.066958221    1.8270149    4.0300274   0.17736316   0.58253326   0.90539177   0.16172673 
   19550        19489    736.48951   -217.75747    17123.613  0.067637944     1.836662    4.0189299   0.14302659   0.58930649   0.90073057   0.20359839 
   19600        19539    759.83889   -532.18486    16948.349  0.068337393    1.7701075    4.0215611   0.14473521   0.64761148   0.76158424   0.21617656 
   19650        19589    737.20611   -99.337932    16767.186  0.069075752    1.8304552    4.0148464   0.18378934     0.598055   0.86157741   0.18703347 
   19700        19639    744.93075   -163.98849    16594.721   0.06979364    1.8004034    4.0076833   0.13555951   0.63472766   0.83692269   0.19319356 
   19750        19689    754.30644     1239.097    16412.029  0.070570553    1.7709451    4.0060057   0.19415781   0.55296245   0.81068328   0.21314157 
   19800        19739    743.37714   -319.92931    16245.334  0.071294685    1.8017295    4.0044058   0.15059236   0.65686256   0.83353395    0.1607406 
   19850        19789    772.18246    377.11991    16084.999  0.072005348    1.7028568    3.9908853   0.13936078   0.59107294   0.79267697   0.17974614 
   19900        19839     696.2304    32.237436    15927.699  0.072716465    1.9177961    3.9807735   0.18930784   0.57172315   0.98915719   0.16760793 
   19950        19889    738.75835    581.17618     15777.55  0.073408481    1.7844035    3.9733941   0.14848084   0.60237742    0.8736666   0.15987865 
   20000        19939    686.42606    350.73916    15628.438  0.074108875    1.9256441    3.9595706   0.16209585   0.65937325   0.91987679   0.18429819 
   20050        19989    716.77022   -13.587239    15485.878  0.074791106    1.8365298    3.9603681   0.16719853   0.59918379   0.87900622   0.19114125 
   20100        20039    704.64487    76.140935    15346.542   0.07547016    1.8610068    3.9489168   0.15248783   0.66964309   0.83589732   0.20297855 
   20150        20089    689.01649   -135.41366    15202.642  0.076184517    1.8996678    3.9412699   0.17751066   0.67453601   0.84304145   0.20457969 
   20200        20139    722.04049    829.27826    15065.829  0.076876351    1.7983115    3.9377659   0.15611364   0.61542741     0.827876   0.19889441 
   20250        20189    725.75589   -105.73659    14927.743  0.077587478    1.7895527    3.9400162   0.16676367   0.65838849   0.79657165   0.16782893 
   20300        20239    678.71004    168.78013    14792.448  0.078297112    1.9100979    3.9211613   0.17764575   0.59953912   0.96333267   0.16958039 
   20350        20289    758.59841    212.86242    14663.935  0.078983298    1.6487707    3.8965487   0.13404555   0.56795237   0.79677134   0.15000141 
   20400        20339    673.18908   -298.00176    14530.556  0.079708306    1.8977457    3.8924501   0.17239447   0.64987184   0.86887494   0.20660443 
   20450        20389    703.74774    1117.3534    14401.512  0.080422525    1.8124972    3.8977489   0.18149935   0.60668813   0.81310246   0.21120722 
   20500        20439    701.55136   -340.35662    14276.253  0.081128146    1.8027778    3.8815216   0.15649909   0.67871985   0.81229241   0.15526644 
   20550        20489    652.08186    625.27309    14149.829     0.081853    1.9514633    3.8836256   0.19891357   0.70402766   0.83386807   0.21465397 
   20600        20539    685.01166   -58.547353    14032.351  0.082538271    1.8387118    3.8684473   0.16226817   0.72954062   0.77880681   0.16809623 
   20650        20589    714.36598    290.08286    13914.282  0.083238642    1.7329271    3.8496415   0.14647276   0.63393557   0.80638074   0.14613805 
   20700        20639    715.36078   -622.52894    13790.552  0.083985466    1.7107846    3.8304466   0.13856376   0.59648982   0.78649773   0.18923329 
   20750        20689    738.42092    33.808443    13671.149  0.084718994    1.6350099    3.8230007   0.14945746   0.50716962   0.80952893   0.16885392 
   20800        20739    722.00434   -658.01979    13557.213  0.085430979    1.6655248    3.8048722   0.15946013   0.55730349    0.7827151   0.16604611 
   20850        20789    673.52501    921.71825    13446.289  0.086135736    1.7953109    3.7910107   0.16334146   0.61828358   0.80346005   0.21022583 
   20900        20839    667.96568   -880.65496    13337.452  0.086838625    1.8202323    3.7994594   0.16833552   0.64141583   0.79994175   0.21053918 
   20950        20889    686.85084    722.82982     13235.02  0.087510707    1.7705629     3.805748   0.13300507   0.65672981   0.81884087   0.16198715 
   21000        20939    622.21922    375.60827    13121.936  0.088264867    1.9422962    3.7859736   0.18429229   0.65993774   0.88971241   0.20835379 
   21050        20989    662.29199    100.30218    13012.725  0.089005645    1.8215008    3.7839165   0.13829465   0.63743124   0.84990964   0.19586532 
   21100        21039    626.81176    502.57362     12896.09   0.08981063    1.9228283    3.7801136   0.18794829    0.7047954   0.84044583   0.18963878 
   21150        21089    646.78075   -207.44901    12782.432  0.090609204     1.856933    3.7733878   0.16360463   0.64716124   0.86030903   0.18585812 
   21200        21139    684.10229    340.01207    12671.704  0.091400968    1.7332076    3.7602486    0.1469164    0.6413107   0.76232123    0.1826593 
   21250        21189    707.04174   -489.34402    12560.697  0.092208732      1.65836    3.7533722   0.13467935   0.54019819   0.79912318   0.18435931 
   21300        21239    675.47221    212.61201    12450.578  0.093024277    1.7363023    3.7377718   0.17852999   0.52062401   0.80738429   0.22976402 
   21350        21289    691.58736    449.57974    12349.293  0.093787227     1.694746    3.7439658   0.12467036   0.51107301   0.86037311   0.19862955 
   21400        21339     655.8477     145.1617    12250.654   0.09454238    1.8053177    3.7486384   0.17205795   0.54781197   0.84794807   0.23749969 
   21450        21389    650.57877    369.89713    12154.177  0.095292832    1.8090111    3.7367197   0.17160435   0.61389582   0.80466716   0.21884378 
   21500        21439    671.66235   -878.90612    12056.801  0.096062461    1.7491151    3.7392957   0.14903207    0.6372757   0.79338282   0.16942449 
   21550        21489     648.3846    19.536062    11957.854  0.096857347    1.8013856    3.7225927   0.16997361   0.62565062   0.80412833   0.20163307 
   21600        21539    623.45579    13.465922    11861.451  0.097644546    1.8562011    3.7035425   0.18175643   0.64680702   0.83439741   0.19324029 
   21650        21589    656.62003    669.81345    11769.756  0.098405265    1.7497938    3.6954031   0.15320836   0.59406016   0.79326063   0.20926469 
   21700        21639    682.99626    159.95642    11682.448  0.099140695    1.6742124    3.6979762   0.18062131   0.53937517   0.80338744   0.15082846 
   21750        21689    660.99768   -885.92698    11598.554  0.099857792    1.7328685     3.691449   0.15946152   0.65164209   0.72655298   0.19521194 
   21800        21739    669.92151   -788.73992    11511.367   0.10061411    1.6965204    3.6815428   0.16513952   0.59967175   0.76888738   0.16282172 
[...]
  228200       228139    262.03588   -1806.1676    1876.9452   0.61706969   0.46302286    1.2394528  -0.20697859   0.24389802   0.35300746  0.073095968 
  228250       228189    272.21104    2539.5525    1878.1287   0.61668083   0.43210548    1.2386851  -0.21992415   0.24783426   0.34076438   0.06343099 
  228300       228239    262.71601   -339.20332     1881.654   0.61552548   0.45747614    1.2359213  -0.20820547   0.22112999    0.3659115  0.078640119 
  228350       228289    269.48117   -1973.5738    1885.9296   0.61413001   0.43536105    1.2338519   -0.2118473   0.23901042    0.3413796  0.066818336 
  228400       228339    245.33473   -657.28553    1888.3215    0.6133521   0.50730931    1.2342526  -0.21056726   0.28332211   0.36256673  0.071987729 
  228450       228389    271.12158    981.68145    1887.8623   0.61350129   0.43014732    1.2334988    -0.201651   0.26037791   0.31886047  0.052559941 
  228500       228439    271.23208   -2698.0252    1887.3596    0.6136647    0.4262231     1.229902  -0.22281867   0.22390796    0.3466056  0.078528213 
  228550       228489     277.4687    668.96393    1884.2612   0.61467377   0.40569887    1.2278573  -0.21846027   0.23540349   0.32476826  0.063987399 
  228600       228539    256.81529   -3005.4853      1879.02   0.61638833   0.46735369    1.2283147   -0.1934325   0.24413164   0.36309116   0.05356339 
  228650       228589    269.80691    5387.4715    1875.4787   0.61755219   0.42674343    1.2261994   -0.1963794   0.19527389   0.36722703   0.06062191 
  228700       228639    275.55339   -1973.1049    1875.6416   0.61749854    0.4122158     1.228699  -0.20362874   0.23117813   0.33393318  0.050733236 
  228750       228689    265.72856    4176.4061    1880.4533   0.61591849   0.44165739     1.229029  -0.20544932   0.26329532   0.32399041   0.05982099 
  228800       228739    252.36963   -5592.4033    1888.1228   0.61341666   0.48247489    1.2302631  -0.20516572   0.25680582   0.35954797  0.071286815 
  228850       228789      268.519     2391.068    1894.4229   0.61137668   0.43303343    1.2286732  -0.20590077    0.2279238   0.34995759  0.061052816 
  228900       228839    269.90782   -2067.6607    1898.4485   0.61008028   0.42619636    1.2259513   -0.2152839   0.23303062   0.34504356  0.063406075 
  228950       228889    278.84584    2468.0681    1899.8547    0.6096287   0.39932581    1.2255648  -0.18545052   0.22822714    0.2984006  0.058148596 
  229000       228939    247.57956   -2732.5767    1902.8237   0.60867749   0.49513492    1.2287298  -0.18995411   0.22681518   0.38244352  0.075830335 
  229050       228989    266.14699    2148.7876    1908.6433    0.6068216   0.44540189    1.2340133  -0.19049746    0.2082352   0.36157062  0.066093531 
  229100       229039    240.07858    -1410.256    1914.6127   0.60492964   0.52625074    1.2376197  -0.19270121   0.25267388   0.39184714  0.074430916 
  229150       229089    250.20717    5663.5977    1920.4954   0.60307666   0.50014664    1.2415273  -0.18575173   0.25170793   0.35546519   0.07872524 
  229200       229139    261.89106   -3305.8263    1926.9274   0.60106361   0.46877924      1.24478  -0.20930445   0.25296838   0.36780135  0.057313956 
  229250       229189     258.2179    1329.4836    1931.1984   0.59973433   0.47910111    1.2442181  -0.19772488   0.23908488   0.37509603  0.062645088 
  229300       229239    240.85017   -828.28875    1934.1724   0.59881216   0.53069679     1.244352  -0.19616798   0.27380926   0.38070231  0.072353198 
  229350       229289    247.98282    463.62672    1934.6132   0.59867574   0.50917145    1.2439612  -0.18204837   0.22389399   0.38993197  0.077393857 
  229400       229339    256.14219    2003.3625    1932.5268   0.59932208   0.48408438    1.2430509  -0.21241454   0.25151262   0.36487245  0.080113839 
  229450       229389    256.44486   -2464.3262    1927.9477   0.60074555    0.4808538    1.2407171  -0.20279108   0.23062602   0.38624923  0.066769629 
  229500       229439    256.65667    1409.0318    1922.7628   0.60236549   0.47851914    1.2390101   -0.1956565   0.24218378   0.35601086  0.075981007 
  229550       229489    265.98765   -3663.8127    1919.5274   0.60338079   0.45175788    1.2398971  -0.21552495   0.23085363   0.37221387  0.064215339 
  229600       229539    254.85825    2227.8105    1916.8946   0.60420951   0.48287199    1.2380341  -0.18350121   0.24433376    0.3601793  0.061860125 
  229650       229589    253.92251    919.16347    1917.0358   0.60416503   0.48573564    1.2381251  -0.19823805   0.24327424    0.3626648  0.078034651 
  229700       229639    240.58757   -1516.6551    1917.5337   0.60400815   0.52945471    1.2423318  -0.17772899   0.27569215   0.35599106  0.075500477 
  229750       229689    261.26566   -2938.8441    1916.8948   0.60420946   0.47291535    1.2470631  -0.21268359   0.25232996    0.3534542  0.079814786 
  229800       229739    250.87433    1177.3038    1913.7033    0.6052171   0.50444985    1.2478073  -0.19401522   0.26707301   0.35988836    0.0715037 
  229850       229789    254.62332    633.32209    1911.0211   0.60606656   0.49526714    1.2497331  -0.22139593   0.24404942   0.38949266  0.083120981 
  229900       229839    277.30506    3228.1359    1905.9018   0.60769446   0.42496766    1.2466412   -0.2070695    0.2137667   0.35442484  0.063845621 
  229950       229889    258.22607   -3946.1589    1901.6074   0.60906681   0.47954677     1.244688  -0.23932626   0.23444941   0.41042149  0.074002134 
  230000       229939    258.45123     4249.844     1891.459   0.61233468   0.47732767     1.243136   -0.1976503   0.21283008   0.38046061  0.081687278 
  230050       229989    267.88605    2496.7318    1884.4309   0.61461844   0.45062293    1.2443873  -0.19622269   0.22315889   0.37581093  0.047875799 
  230100       230039    270.79654    2047.6402    1878.4029    0.6165908   0.44195953    1.2443479  -0.21463701   0.23620868   0.34247314  0.077914716 
  230150       230089    262.10186   -3702.2575    1873.1693   0.61831354   0.46938262     1.246008  -0.21566256   0.27173582    0.3427757  0.070533664 
  230200       230139    253.78808   -41.183057    1867.7779   0.62009832    0.4922607    1.2442518  -0.22318771   0.25605681   0.37754704  0.081844549 
  230250       230189    241.77798   -3892.7693    1860.1399   0.62264454   0.52434686    1.2407512  -0.22989473    0.2538887   0.42319866  0.077154233 
  230300       230239     254.0541    2708.3696    1850.8997   0.62575297   0.48614575    1.2389251  -0.20890654   0.25653542   0.36412243  0.074394431 
  230350       230289    258.34936   -1856.3319    1845.9325    0.6274368   0.47489084    1.2403973  -0.22101392   0.27334222   0.35730539   0.06525715 
  230400       230339    238.77681    3015.1882     1843.182   0.62837308   0.53432541    1.2418371  -0.19764495   0.26230008   0.40867629  0.060993999 
  230450       230389    259.86936   -500.98117    1846.7363   0.62716369   0.46884547    1.2388558  -0.21835668   0.23354488    0.3819135  0.071743769 
  230500       230439    249.32248     2825.088    1850.5993   0.62585453    0.5020413    1.2408005   -0.1990375   0.25384877   0.36414825  0.083081775 
  230550       230489    260.06115    1706.6524    1855.4007   0.62423496   0.47140023    1.2419789   -0.2086045   0.25761172    0.3470886  0.075304418 
  230600       230539    259.15075   -3626.7771    1860.2243    0.6226163   0.47296664    1.2408477  -0.22735346   0.26385653   0.35273541  0.083728158 
  230650       230589    270.06066    2690.0833     1862.452   0.62187158   0.43905115     1.239259   -0.2169055   0.23869838   0.35128737    0.0659709 
  230700       230639    271.33192   -6329.6648    1864.4121   0.62121779   0.43285364    1.2368283  -0.22155265   0.23213824   0.35427804  0.067990012 
  230750       230689    273.52089    3937.2874    1864.1697   0.62129857   0.42442928      1.23489   -0.2262865   0.25054033   0.33471614  0.065459316 
  230800       230739    268.75711   -2633.6333    1862.2654   0.62193389   0.43607363     1.232419  -0.20696943   0.21662185   0.36852999  0.057891209 
  230850       230789    269.66536    2715.4782    1861.6633   0.62213505   0.43138119    1.2304178  -0.21354166   0.19657839    0.3716793  0.076665157 
  230900       230839    266.02805   -971.39349    1862.0406   0.62200897   0.44613615    1.2343951  -0.21448211   0.21553319   0.36874848  0.076336586 
  230950       230889    253.23716   -1967.3101     1862.014   0.62201785   0.48692144    1.2372802  -0.22319645   0.25017088   0.39179441  0.068152597 
  231000       230939    254.07459    1374.3574    1859.3896   0.62289581   0.48364074    1.2364808  -0.20150366   0.25292098   0.36765829  0.064565132 
  231050       230989    262.26571   -1569.6255    1856.8973   0.62373184   0.45940017    1.2365111  -0.21749739   0.24500778   0.36375682  0.068132964 
  231100       231039    258.30416    -533.2823    1854.1079   0.62467021   0.47158373    1.2369563   -0.2159693   0.26999693   0.35781525  0.059740859 
  231150       231089     261.3998    4037.1202    1852.2537   0.62529554    0.4621178     1.236663  -0.21404215   0.23450276   0.35806148  0.083595709 
  231200       231139    252.81482   -2858.9046    1851.7064   0.62548034    0.4878595    1.2369668  -0.20983434   0.24837604   0.38835072  0.060967085 
  231250       231189    250.27493    904.39212    1850.6507   0.62583717   0.49354555     1.235127  -0.22638133   0.25406027   0.39990694  0.065959674 
  231300       231239    266.92664    1275.0294    1848.7177   0.62649153   0.44112919    1.2320507  -0.21722292   0.22244806   0.36685929  0.069044764 
  231350       231289    265.64247   -302.55403    1846.8168   0.62713637   0.44387434    1.2309908  -0.24159868   0.21610797   0.39669234  0.072672708 
  231400       231339    249.43612    1426.5271    1840.2528    0.6293733   0.48918282    1.2282788  -0.21174042   0.22457241   0.41321326  0.063137568 
  231450       231389    267.04158   -2041.2612    1835.0663   0.63115211   0.43530525    1.2265674  -0.21075705   0.20836581   0.37726474  0.060431753 
  231500       231439    251.70676   -2133.4044     1830.472   0.63273624   0.48204389    1.2278679  -0.20970063     0.228593   0.38919307  0.073958439 
  231550       231489    276.63975    3053.8918    1827.6237   0.63372234   0.40942635    1.2291285  -0.23214919   0.21891172   0.37352978   0.04913403 
  231600       231539    260.25676   -4301.6951    1825.1079   0.63459589   0.45552056    1.2266788  -0.23925002   0.22860764   0.38306476  0.083098191 
  231650       231589    261.27601     6081.969    1819.5281   0.63654197   0.45136968     1.225548  -0.23102381   0.21648164   0.40746603  0.058445814 
  231700       231639    246.86122    -6157.219     1814.589   0.63827454   0.49411081    1.2255772  -0.22017693   0.23784109   0.38721668  0.089229972 
  231750       231689    253.50254    6852.3324    1809.9259   0.63991898   0.47831957    1.2294646  -0.24249639   0.24116956   0.39793544  0.081710961 
  231800       231739    254.75594   -6162.7637    1802.0124    0.6427292    0.4721539    1.2270128  -0.25760804   0.24518698   0.38776209  0.096812871 
  231850       231789    271.35879    4886.8572    1790.6188   0.64681882   0.41703987    1.2210942  -0.25143555    0.2207083   0.38083519  0.066931924 
  231900       231839    253.23888   -8406.7743    1778.2045    0.6513345   0.46807339    1.2184372   -0.2414015   0.25054188   0.38118253  0.077750479 
  231950       231889    284.51232    1005.4077    1768.0476   0.65507623   0.37042632    1.2134554  -0.23808115   0.21019612   0.33341087  0.064900473 
  232000       231939    258.11209   -3103.8458    1760.1235    0.6580254   0.45049069    1.2152941  -0.24396225   0.26946376   0.33828046  0.086708727 
  232050       231989    275.77952    5103.9636    1753.4878   0.66051557   0.39651019    1.2136634  -0.21470633   0.21493198   0.32947103  0.066813513 
  232100       232039    290.32818   -1417.7142    1754.7127   0.66005446   0.35313254    1.2133944  -0.23266803   0.21883648   0.30000162  0.066962471 
  232150       232089    280.43232   -2709.7025     1759.842   0.65813066   0.38006449    1.2110043  -0.24669455   0.22704828   0.32432525  0.075385506 
  232200       232139    252.93458     2992.358    1764.6424   0.65634032   0.45973498    1.2091971  -0.23903267   0.26863968   0.35452287  0.075605104 
  232250       232189    258.68198   -418.08366    1772.1778   0.65354954   0.44161454    1.2081066  -0.23753727   0.23529926   0.37096298  0.072889565 
  232300       232239    259.05935    3243.6528    1779.4503   0.65087851   0.44027442    1.2078847  -0.23359652   0.22924905   0.37526119  0.069360692 
  232350       232289    263.23172   -2455.3055    1786.5899   0.64827748   0.42668773     1.206661  -0.22699239   0.20790492    0.3806144  0.065160793 
  232400       232339    262.88105    555.75924    1793.5101   0.64577611    0.4281574    1.2070916  -0.23016235   0.23232098   0.34570013  0.080298643 
  232450       232389    244.06035    3361.4921    1799.8176   0.64351298   0.48863771    1.2118049  -0.21225927   0.22285491   0.39768327  0.080358802 
  232500       232439    257.55255   -2254.8402    1808.1642   0.64054246   0.45166625    1.2148117  -0.23806173   0.21850282   0.39790529  0.073319878 
  232550       232489    264.86847    5795.0994    1816.4119   0.63763398   0.43109496     1.215918   -0.2157047    0.2366983   0.35291124  0.057190116 
  232600       232539    254.33444   -6360.0865    1825.8966   0.63432179   0.46388615    1.2174962   -0.2402038   0.22181254   0.41352033  0.068757071 
  232650       232589     278.9559    3543.8685    1830.8976   0.63258915   0.38763731    1.2142024  -0.23822253   0.21145801   0.35135289  0.063048929 
  232700       232639    245.02966   -1152.2115      1833.95   0.63153628   0.48744385    1.2134832  -0.20810992    0.2406412   0.39212401  0.062788563 
  232750       232689    254.88432    1708.3233    1836.2869   0.63073257   0.45929498    1.2145343  -0.21811298   0.20968135   0.39739882  0.070327788 
  232800       232739     257.0893      3894.42    1837.5606    0.6302954   0.45528584    1.2170587  -0.21519273   0.24233561   0.36106059  0.067082375 
  232850       232789    243.87998   -7219.1532    1837.4786   0.63032352   0.49494912    1.2175819  -0.22318485   0.26926301   0.37683703  0.072033931 
  232900       232839    272.45998    4642.0964    1833.3107   0.63175651   0.40829611    1.2156133  -0.21628262   0.23135684   0.32404134   0.06918054 
  232950       232889    261.36344   -3409.2005    1829.2255   0.63316741   0.44074287    1.2151803  -0.21994392   0.24057586   0.35769003  0.062420906 
  233000       232939    258.02408    3696.1145    1825.8212   0.63434796   0.45259022    1.2171329  -0.22110649   0.23338698   0.37834993  0.061959796 
  233050       232989    263.59221   -848.73998    1822.9787   0.63533709   0.43682904    1.2178705  -0.20881532   0.27141501   0.30111133  0.073118018 
  233100       233039     267.0397   -337.32227    1823.3607   0.63520396    0.4283024     1.219559  -0.23370687   0.24486762   0.33949382  0.077647824 
  233150       233089    269.42982   -1963.8449    1821.9832   0.63568421   0.42239109    1.2207297   -0.2172789   0.23631116   0.34497746  0.058381373 
  233200       233139    284.13446    1448.7558     1822.803   0.63539831    0.3787587    1.2206682  -0.23405805   0.23858057   0.30974295  0.064493226 
  233250       233189    259.40497   -3954.8133    1821.6086   0.63581495   0.45187741    1.2205118  -0.21833386   0.23768314   0.36523267  0.067295471 
  233300       233239     269.7612    1211.4749    1818.9826   0.63673284   0.41833947      1.21766  -0.22062402   0.22920046   0.33265092  0.077112119 
  233350       233289    264.43123   -5161.4531    1817.8629   0.63712505   0.43357867    1.2171062  -0.24224044   0.25613148   0.33821164  0.081475986 
  233400       233339    263.30105     1370.558    1813.9331   0.63850533   0.43793733     1.218116  -0.21878823   0.23156921   0.35832722  0.066829113 
  233450       233389    271.22167    4051.7192    1811.9721   0.63919638   0.41435098     1.217999  -0.24966098   0.24946432   0.33402745  0.080520185 
  233500       233439    245.60133    994.05399    1809.2228   0.64016769   0.49136131    1.2190945  -0.21495669   0.25069545   0.38631958  0.069302972 
  233550       233489    249.26776    5965.7979    1811.0348   0.63952718    0.4807534    1.2193505   -0.2320533    0.2438181   0.38404639  0.084942211 
  233600       233539    262.00551   -6780.7302    1813.2098   0.63876006   0.44174133    1.2180812  -0.22635454   0.24178658   0.36335588  0.062953412 
  233650       233589    266.83349    1910.3451    1813.5777   0.63863048   0.42504708    1.2156926  -0.25161222   0.24520603   0.36378094  0.067672318 
  233700       233639    259.27476    760.70674    1811.8096   0.63925368   0.44139433    1.2096428  -0.23175698   0.26046306   0.33964783  0.073040412 
  233750       233689    250.20432   -3097.9628    1810.7389   0.63963169   0.46752973    1.2089019  -0.21550637   0.24581137   0.37296784  0.064256897 
  233800       233739    255.38306    7518.6101    1814.2583   0.63839088   0.45088995    1.2076071  -0.19729803   0.24701109   0.33712189  0.064055002 
  233850       233789    255.12235    -10412.46    1824.4441   0.63482679    0.4542676    1.2102122  -0.22955011   0.26169903   0.35994253  0.062176143 
  233900       233839    264.50618     6187.461    1832.2519    0.6321216   0.42572557    1.2094751  -0.21939402   0.24511033   0.33930073   0.06070853 
  233950       233889    246.81613    -962.0397    1839.8359   0.62951592   0.47751418    1.2088469  -0.20032328   0.23882665   0.36470616  0.074304648 
  234000       233939    254.02105    500.21822    1847.8168   0.62679697   0.45872052     1.211402  -0.21512387   0.26999934   0.34133984  0.062505209 
  234050       233989     253.3685    1920.9465    1853.9753   0.62471489   0.46367988    1.2144277   -0.2131695   0.26785572   0.34274494  0.066248724 
  234061       234000    258.46743   -869.98476    1855.6951   0.62413591   0.44966543    1.2155218   -0.2104578   0.26181371   0.33934044  0.058969089 
Loop time of 108.24 on 8 procs for 200000 steps with 168 atoms

Performance: 159.646 ns/day, 0.150 hours/ns, 1847.753 timesteps/s
98.9% CPU use with 8 MPI tasks x no OpenMP threads

MPI task timing breakdown:
Section |  min time  |  avg time  |  max time  |%varavg| %total
---------------------------------------------------------------
Pair    | 23.154     | 38.954     | 54.35      | 145.8 | 35.99
Bond    | 5.0553     | 5.172      | 5.3277     |   4.5 |  4.78
Kspace  | 24.556     | 40.1       | 56.186     | 145.1 | 37.05
Neigh   | 2.6869     | 2.7122     | 2.7356     |   1.0 |  2.51
Comm    | 15.594     | 16.128     | 16.513     |   8.5 | 14.90
Output  | 0.3352     | 0.35284    | 0.41836    |   4.2 |  0.33
Modify  | 2.8363     | 3.2868     | 3.8594     |  17.4 |  3.04
Other   |            | 1.534      |            |       |  1.42

Nlocal:        21.0000 ave          27 max          15 min
Histogram: 2 0 0 0 0 4 0 0 1 1
Nghost:        2973.38 ave        3042 max        2910 min
Histogram: 1 2 0 1 0 0 2 0 0 2
Neighs:        8762.75 ave       12873 max        5609 min
Histogram: 1 1 0 3 0 1 1 0 0 1

Total # of neighbors = 70102
Ave neighs/atom = 417.27381
Ave special neighs/atom = 9.1428571
Neighbor list builds = 4259
Dangerous builds = 0

write_data   system_after_eq3_npt.data
System init for write_data ...
PPPM initialization ...
  using 12-bit tables for long-range coulomb (../kspace.cpp:340)
  G vector (1/distance) = 0.21010626
  grid = 4 4 4
  stencil order = 5
  estimated absolute RMS force accuracy = 0.0037759052
  estimated relative force accuracy = 1.1371026e-05
  using double precision KISS FFT
  3d grid and FFT values/proc = 343 8

Total wall time: 0:01:56
