ITEM: TIMESTEP
200
ITEM: NUMBER OF ATOMS
168
ITEM: BOX BOUNDS pp pp pp
0.0000000000000000e+00 6.2399999999999999e+01
0.0000000000000000e+00 6.2399999999999999e+01
0.0000000000000000e+00 6.2399999999999999e+01
ITEM: ATOMS id mol type x y z ix iy iz
110 8 3 14.1695 0.171165 5.19249 0 0 0
9 1 3 2.33534 1.82834 0.0315673 0 0 0
12 1 3 4.27903 0.865523 1.10242 0 0 0
47 4 2 1.11362 5.76142 0.642456 0 0 0
49 4 3 0.943153 6.41894 1.47371 0 0 0
50 4 2 2.55747 5.80791 0.266943 0 0 0
51 4 3 2.87341 6.67231 0.609857 0 0 0
53 4 1 3.56396 4.61949 0.786102 0 0 0
54 4 3 3.97527 4.70915 1.81207 0 0 0
109 8 1 13.6889 0.259564 4.24089 0 0 0
92 7 2 1.53118 0.345738 5.21017 0 0 0
93 7 3 1.43821 0.855203 6.20794 0 0 0
94 7 3 1.88414 1.13839 4.53048 0 0 0
48 4 3 0.863156 4.70056 1.05144 0 0 0
131 10 2 1.12279 4.25803 4.7221 0 0 0
132 10 3 0.852505 3.72799 3.79201 0 0 0
133 10 3 1.36098 3.43275 5.36884 0 0 0
134 10 2 2.45184 5.07636 4.69631 0 0 0
135 10 3 2.56968 5.76922 5.61435 0 0 0
136 10 3 2.35209 5.74413 3.76714 0 0 0
137 10 1 3.58728 4.185 4.77919 0 0 0
138 10 3 3.89787 4.02447 5.73562 0 0 0
139 10 3 3.59018 3.15206 4.34751 0 0 0
140 10 3 4.40527 4.60858 4.32776 0 0 0
15 2 1 10.6965 0.390382 0.188168 0 0 0
16 2 3 11.0857 1.43827 0.323014 0 0 0
81 6 1 24.4817 4.37008 0.206276 0 0 0
82 6 3 24.5565 3.83291 1.16846 0 0 0
27 2 3 14.0567 0.487639 1.31078 0 0 0
7 1 3 1.78227 0.0387216 1.68729 0 0 0
58 5 3 10.1344 5.52197 0.889204 0 0 0
165 12 1 24.2552 3.97786 3.98934 0 0 0
166 12 3 24.6489 3.18049 4.76007 0 0 0
63 5 3 11.9761 3.81544 0.727729 0 0 0
84 6 3 25.3741 5.05221 0.128175 0 0 0
65 5 3 12.3709 6.36044 0.691918 0 0 0
11 1 1 3.83331 0.399099 0.23688 0 0 0
68 5 3 14.4264 5.2026 0.857417 0 0 0
167 12 3 23.7333 3.77733 3.02889 0 0 0
99 8 1 10.1353 0.687239 5.83272 0 0 0
100 8 3 9.9497 0.418137 6.83915 0 0 0
101 8 3 10.2166 1.79341 5.75338 0 0 0
106 8 2 12.5036 1.01006 4.65156 0 0 0
107 8 3 13.1769 1.6355 5.33096 0 0 0
108 8 3 12.1325 1.45743 3.7291 0 0 0
112 8 3 14.4169 0.910748 3.59148 0 0 0
141 11 1 10.6436 5.60744 5.91239 0 0 0
142 11 3 10.7693 6.40718 6.46006 0 0 0
143 11 3 10.2669 6.12239 5.09282 0 0 0
144 11 3 9.94306 5.03957 6.46692 0 0 0
145 11 2 11.7957 4.693 5.87359 0 0 0
146 11 3 11.5663 3.67002 5.52473 0 0 0
147 11 3 11.9377 4.59233 6.96691 0 0 0
148 11 2 12.9814 5.30429 5.00256 0 0 0
149 11 3 13.8779 5.70639 5.64193 0 0 0
150 11 3 12.4291 5.98712 4.51079 0 0 0
151 11 1 13.8148 4.45162 3.87272 0 0 0
152 11 3 13.816 3.37143 3.96084 0 0 0
153 11 3 13.5376 4.82157 2.90392 0 0 0
154 11 3 14.9166 4.70697 3.97327 0 0 0
168 12 3 25.3018 4.1541 3.66632 0 0 0
102 8 3 9.18601 0.515277 5.28974 0 0 0
164 12 3 24.2431 6.02692 4.27188 0 0 0
29 3 1 20.5912 0.55606 0.592426 0 0 0
30 3 3 20.5273 0.218432 1.68484 0 0 0
36 3 2 23.2737 0.476379 0.709573 0 0 0
37 3 3 23.279 -0.193192 1.41467 0 0 0
71 6 1 20.3368 4.53093 0.138708 0 0 0
72 6 3 19.9054 4.03568 0.994001 0 0 0
56 4 3 4.47179 4.49365 0.134578 0 0 0
75 6 2 21.9582 4.14893 0.0326248 0 0 0
77 6 3 22.1322 3.48121 0.873903 0 0 0
78 6 2 23.1919 5.17884 0.160085 0 0 0
79 6 3 23.0182 5.69889 1.11882 0 0 0
113 9 1 20.8741 -0.131287 4.83071 0 0 0
114 9 3 20.946 -0.106056 5.82064 0 0 0
115 9 3 20.5655 0.79711 4.41589 0 0 0
120 9 2 23.4608 0.276099 4.50216 0 0 0
121 9 3 23.1304 1.29103 4.77123 0 0 0
122 9 3 24.0303 0.566704 3.63774 0 0 0
155 12 1 21.1941 4.69399 3.80078 0 0 0
156 12 3 20.1906 5.10929 3.72034 0 0 0
157 12 3 21.7372 4.64488 2.87542 0 0 0
158 12 3 20.9475 3.70908 3.98386 0 0 0
159 12 2 22.0579 5.48429 4.92693 0 0 0
160 12 3 21.7299 5.11094 5.93167 0 0 0
161 12 3 21.9045 6.58123 4.84074 0 0 0
162 12 2 23.7228 5.14851 4.75034 0 0 0
163 12 3 24.2892 5.12885 5.66769 0 0 0
32 3 3 19.7977 -0.0143094 0.122472 0 0 0
126 9 3 25.1043 0.369188 6.05792 0 0 0
103 8 2 11.4358 0.0297871 5.38353 0 0 0
38 3 3 23.0807 1.4636 1.117 0 0 0
130 10 3 0.292223 6.01981 5.84849 0 0 0
5 1 2 1.45866 -0.0593136 0.708499 0 0 0
55 4 3 3.12039 3.72207 0.846447 0 0 0
10 1 3 2.16354 0.837635 61.1855 0 0 -1
67 5 1 14.1247 5.45245 62.2631 0 0 -1
52 4 3 2.53009 6.05045 61.5122 0 0 -1
34 3 3 22.1656 -0.105143 61.258 0 0 -1
17 2 3 10.4587 0.430153 61.5693 0 0 -1
70 5 3 14.4233 6.38133 62.1966 0 0 -1
59 5 3 9.73415 5.52583 61.653 0 0 -1
62 5 3 11.9884 4.02773 61.3198 0 0 -1
66 5 3 12.4977 6.46685 61.3668 0 0 -1
69 5 3 14.5598 4.89679 61.4158 0 0 -1
80 6 3 23.1245 5.97695 61.8248 0 0 -1
31 3 3 20.3122 1.67305 63.0381 0 0 -1
23 2 3 12.8928 1.16294 61.7526 0 0 -1
73 6 3 20.3419 5.5219 63.094 0 0 -1
76 6 3 21.9295 3.48254 61.6294 0 0 -1
83 6 3 24.665 3.8533 61.7011 0 0 -1
74 6 3 19.6698 4.38745 61.657 0 0 -1
61 5 2 11.7765 4.59664 62.2876 0 0 -1
22 2 2 13.0104 0.0230565 61.9974 0 0 -1
64 5 2 12.682 5.76961 62.2304 0 0 -1
8 1 2 2.43007 0.696877 62.2342 0 0 -1
14 1 3 4.60138 0.677149 61.8628 0 0 -1
44 4 3 -0.103242 7.0214 61.837 0 0 -1
60 5 3 9.67049 4.13386 62.6278 0 0 -1
42 3 3 24.6638 1.27903 61.5977 0 0 -1
39 3 1 24.4558 0.257811 62.0642 0 0 -1
57 5 1 10.255 4.94303 62.4144 0 0 -1
40 3 3 25.2963 62.3763 0.23354 0 -1 0
117 9 2 22.2038 61.7984 4.19737 0 -1 0
123 9 1 24.5313 61.9897 5.52277 0 -1 0
119 9 3 22.3805 60.9285 4.72803 0 -1 0
124 9 3 23.9051 61.4401 6.25844 0 -1 0
90 7 3 -0.00941383 61.5592 3.94033 0 -1 0
89 7 2 0.128875 62.2096 4.77963 0 -1 0
95 7 1 2.57329 61.5029 5.1226 0 -1 0
96 7 3 2.07313 60.602 5.56221 0 -1 0
97 7 3 3.1029 61.3339 4.13397 0 -1 0
19 2 2 11.8925 61.9455 0.360891 0 -1 0
21 2 3 12.0255 61.8215 1.52582 0 -1 0
25 2 1 14.1944 62.3034 0.479838 0 -1 0
33 3 2 22.0245 62.4503 -0.0612111 0 -1 0
125 9 3 25.2428 61.1827 5.14093 0 -1 0
104 8 3 11.085 61.5009 4.89399 0 -1 0
105 8 3 11.9591 62.0201 6.17538 0 -1 0
118 9 3 21.9788 61.4889 3.18382 0 -1 0
35 3 3 22.0469 61.313 0.00561067 0 -1 0
111 8 3 13.5269 61.6141 3.7488 0 -1 0
98 7 3 3.21659 61.7552 5.94803 0 -1 0
28 2 3 14.3744 61.284 0.700256 0 -1 0
18 2 3 9.61768 62.831 0.706522 0 -1 0
116 9 3 20.0826 61.542 4.61553 0 -1 0
6 1 3 1.66473 61.1287 0.842854 0 -1 0
13 1 3 3.92205 61.7724 0.327438 0 -1 0
24 2 3 13.1809 61.9813 61.1733 0 -1 -1
26 2 3 15.2265 62.7624 62.618 0 -1 -1
20 2 3 11.7758 60.8728 62.5146 0 -1 -1
41 3 3 24.1534 62.0535 61.2425 0 -1 -1
129 10 3 61.6267 4.59068 5.57021 -1 0 0
127 10 1 62.4345 5.21281 5.27525 -1 0 0
1 1 1 62.3524 0.391295 0.573674 -1 0 0
2 1 3 62.326 1.39446 1.17196 -1 0 0
88 7 3 60.7453 0.752087 3.8341 -1 0 0
46 4 3 61.5667 5.78095 0.310262 -1 0 0
85 7 1 61.6191 1.00671 4.38993 -1 0 0
86 7 3 61.2197 1.58552 5.31051 -1 0 0
128 10 3 62.1547 5.91063 4.42631 -1 0 0
87 7 3 62.1581 1.55788 3.64547 -1 0 0
3 1 3 61.8082 0.615355 62.0899 -1 0 -1
45 4 3 62.5407 5.36415 61.2809 -1 0 -1
43 4 1 62.4201 6.00695 62.188 -1 0 -1
4 1 3 61.9484 61.9458 1.09823 -1 -1 0
91 7 3 62.0189 61.513 5.43518 -1 -1 0
ITEM: TIMESTEP
400
ITEM: NUMBER OF ATOMS
168
ITEM: BOX BOUNDS pp pp pp
0.0000000000000000e+00 6.2399999999999999e+01
0.0000000000000000e+00 6.2399999999999999e+01
0.0000000000000000e+00 6.2399999999999999e+01
ITEM: ATOMS id mol type x y z ix iy iz
112 8 3 14.2509 0.00225297 5.65577 0 0 0
5 1 2 1.32962 0.684957 0.971023 0 0 0
12 1 3 3.91829 0.697937 1.39559 0 0 0
47 4 2 1.58699 6.4496 0.803326 0 0 0
49 4 3 2.17463 7.37092 1.17399 0 0 0
129 10 3 0.369883 4.20296 7.05386 0 0 0
23 2 3 12.8969 0.785398 0.347958 0 0 0
105 8 3 10.3163 0.0972739 5.97138 0 0 0
54 4 3 4.42525 5.63037 0.0494206 0 0 0
109 8 1 13.1921 0.187363 5.40912 0 0 0
157 12 3 22.1395 3.666 4.09879 0 0 0
93 7 3 1.41908 0.740291 5.50328 0 0 0
156 12 3 21.7734 4.81126 2.87934 0 0 0
48 4 3 1.76039 5.57276 1.52812 0 0 0
131 10 2 1.84533 3.87314 5.51363 0 0 0
132 10 3 1.25997 3.40698 4.63481 0 0 0
133 10 3 2.10153 2.98727 6.14885 0 0 0
134 10 2 3.04094 4.68773 4.72003 0 0 0
135 10 3 3.1533 5.58622 5.43767 0 0 0
136 10 3 2.63568 5.25524 3.83903 0 0 0
137 10 1 4.45987 4.12436 4.38151 0 0 0
138 10 3 4.73285 3.13888 4.85633 0 0 0
139 10 3 4.42187 3.994 3.22234 0 0 0
140 10 3 5.16432 4.8231 4.60842 0 0 0
163 12 3 24.2275 6.40285 5.49193 0 0 0
16 2 3 11.4915 0.735408 2.34861 0 0 0
81 6 1 23.6895 4.663 0.36855 0 0 0
82 6 3 23.4439 4.496 1.405 0 0 0
60 5 3 11.4233 2.65926 0.473571 0 0 0
162 12 2 24.0413 5.91099 4.58573 0 0 0
58 5 3 12.0908 4.00209 1.52109 0 0 0
165 12 1 24.6605 4.56693 4.58644 0 0 0
166 12 3 24.4227 3.81176 3.89629 0 0 0
121 9 3 22.0258 0.454877 4.64898 0 0 0
84 6 3 24.8359 4.98156 0.629533 0 0 0
57 5 1 11.5894 3.70388 0.588667 0 0 0
11 1 1 3.51353 1.54536 0.86513 0 0 0
43 4 1 0.0143946 6.92922 0.564608 0 0 0
167 12 3 25.7023 4.63833 4.50577 0 0 0
99 8 1 10.3827 2.10678 7.22357 0 0 0
100 8 3 10.4233 3.10281 6.76575 0 0 0
101 8 3 9.36839 1.93549 7.56698 0 0 0
106 8 2 12.2942 0.531225 6.64042 0 0 0
128 10 3 0.264843 5.51135 5.94692 0 0 0
108 8 3 12.9212 1.0837 7.38322 0 0 0
158 12 3 20.8638 4.85639 4.08558 0 0 0
141 11 1 11.1727 5.84276 6.955 0 0 0
142 11 3 10.7986 5.23922 7.70144 0 0 0
143 11 3 12.1145 6.04428 7.17414 0 0 0
144 11 3 10.4582 6.5866 6.94576 0 0 0
145 11 2 11.1566 5.67597 5.46162 0 0 0
146 11 3 11.1951 6.70448 5.02002 0 0 0
147 11 3 10.3383 5.19023 4.79777 0 0 0
148 11 2 12.5071 4.99275 5.05543 0 0 0
149 11 3 12.035 4.00734 4.66437 0 0 0
150 11 3 13.2199 4.77939 5.80491 0 0 0
151 11 1 13.0071 5.44024 3.73999 0 0 0
152 11 3 13.7124 4.80698 3.34094 0 0 0
153 11 3 12.2372 5.73323 2.96557 0 0 0
154 11 3 13.5666 6.35099 3.80535 0 0 0
168 12 3 24.3468 3.97846 5.38757 0 0 0
102 8 3 10.7438 2.0812 8.23655 0 0 0
164 12 3 24.3018 6.40865 3.71048 0 0 0
161 12 3 21.9679 6.66037 4.41423 0 0 0
7 1 3 1.38739 0.917808 2.0192 0 0 0
8 1 2 2.37283 1.19818 -0.0437935 0 0 0
127 10 1 0.89311 4.77683 6.38593 0 0 0
111 8 3 12.9037 0.710045 4.51524 0 0 0
103 8 2 10.8603 0.985638 6.19929 0 0 0
126 9 3 24.3817 0.367561 5.65635 0 0 0
160 12 3 22.3705 5.45219 5.63905 0 0 0
159 12 2 22.526 5.7841 4.75022 0 0 0
155 12 1 21.8932 4.68809 3.91408 0 0 0
79 6 3 22.4561 6.39623 0.224281 0 0 0
55 4 3 3.33604 4.44144 0.648949 0 0 0
130 10 3 1.60325 5.4338 6.81428 0 0 0
104 8 3 11.0628 1.46865 5.25057 0 0 0
14 1 3 3.14063 2.2683 1.73662 0 0 0
13 1 3 4.23406 2.11454 0.2183 0 0 0
59 5 3 10.6122 4.09648 0.494439 0 0 0
35 3 3 22.8596 0.384818 0.624165 0 0 0
83 6 3 23.9574 3.58003 -0.0260647 0 0 0
39 3 1 25.0079 0.0629487 61.6829 0 0 -1
67 5 1 14.1889 5.98059 61.1535 0 0 -1
52 4 3 1.6385 5.25712 61.5431 0 0 -1
3 1 3 -0.283418 0.362301 61.9542 0 0 -1
73 6 3 19.721 5.59147 60.8289 0 0 -1
78 6 2 22.8439 5.63647 61.9495 0 0 -1
63 5 3 13.3611 3.41124 61.7225 0 0 -1
62 5 3 11.9088 3.50416 60.8976 0 0 -1
66 5 3 12.1332 5.55068 60.3209 0 0 -1
69 5 3 14.8 5.52283 60.2719 0 0 -1
74 6 3 19.8661 4.24649 61.9469 0 0 -1
72 6 3 20.4792 5.76013 62.4571 0 0 -1
10 1 3 2.57373 0.447371 61.5614 0 0 -1
61 5 2 12.4377 4.01411 61.7148 0 0 -1
76 6 3 21.8273 5.11419 60.0274 0 0 -1
68 5 3 14.534 5.94908 62.1344 0 0 -1
70 5 3 14.1575 7.06675 61.1876 0 0 -1
31 3 3 21.1914 0.16946 60.7802 0 0 -1
41 3 3 24.8568 1.10438 61.5299 0 0 -1
64 5 2 12.6835 5.45339 61.2498 0 0 -1
50 4 2 2.29767 6.03166 61.8875 0 0 -1
71 6 1 20.3636 5.22072 61.5369 0 0 -1
56 4 3 4.00592 4.5491 61.4244 0 0 -1
75 6 2 21.8111 4.88264 61.1023 0 0 -1
9 1 3 2.22964 2.15201 61.7959 0 0 -1
51 4 3 2.39329 6.80671 61.0434 0 0 -1
77 6 3 22.0346 3.81759 60.9062 0 0 -1
80 6 3 23.1796 6.20952 61.1264 0 0 -1
26 2 3 14.8189 0.0490039 61.6749 0 0 -1
53 4 1 3.55213 5.16764 62.2346 0 0 -1
65 5 3 12.0586 6.11655 61.9137 0 0 -1
15 2 1 11.0267 62.1647 2.02095 0 -1 0
117 9 2 21.8314 60.8667 4.514 0 -1 0
123 9 1 23.5674 61.9784 5.85111 0 -1 0
119 9 3 22.3861 59.952 4.58207 0 -1 0
124 9 3 23.1736 62.016 6.86222 0 -1 0
22 2 2 12.8305 62.1951 0.147328 0 -1 0
20 2 3 12.1216 60.589 1.00435 0 -1 0
95 7 1 0.82086 61.2817 6.47413 0 -1 0
34 3 3 22.4465 61.1539 0.603959 0 -1 0
97 7 3 0.703095 60.2805 6.10674 0 -1 0
19 2 2 12.2435 61.5091 1.42157 0 -1 0
21 2 3 12.9546 61.6428 2.20194 0 -1 0
113 9 1 20.5174 60.7632 5.26816 0 -1 0
114 9 3 20.0429 59.9311 4.68012 0 -1 0
125 9 3 24.0276 61.0781 5.71734 0 -1 0
17 2 3 10.2528 62.3308 1.33387 0 -1 0
33 3 2 22.5567 61.9759 0.0124756 0 -1 0
118 9 3 21.3529 60.6735 3.54134 0 -1 0
30 3 3 20.7963 62.746 0.0638846 0 -1 0
107 8 3 11.9886 62.035 7.31737 0 -1 0
98 7 3 1.76624 61.2382 7.03434 0 -1 0
92 7 2 0.740041 62.2353 5.31054 0 -1 0
6 1 3 1.58479 62.0232 1.03674 0 -1 0
116 9 3 20.0178 61.7268 5.17413 0 -1 0
110 8 3 12.8213 61.7119 5.0756 0 -1 0
115 9 3 20.8195 60.5541 6.36079 0 -1 0
18 2 3 10.631 61.53 2.84538 0 -1 0
122 9 3 23.3533 62.1112 3.89694 0 -1 0
120 9 2 22.5572 61.9944 4.77223 0 -1 0
94 7 3 1.08859 61.6046 4.56034 0 -1 0
27 2 3 14.9073 61.3836 0.640321 0 -1 0
42 3 3 25.2966 62.4301 0.283131 0 -1 0
36 3 2 23.6996 61.6125 61.4067 0 -1 -1
40 3 3 25.8683 62.2168 61.1156 0 -1 -1
37 3 3 23.4413 62.1502 60.4821 0 -1 -1
32 3 3 20.9143 61.0588 61.6744 0 -1 -1
25 2 1 14.2775 61.6886 62.2155 0 -1 -1
28 2 3 14.1477 61.0028 61.3402 0 -1 -1
29 3 1 21.2678 62.0726 61.7992 0 -1 -1
24 2 3 12.0827 61.9998 61.8194 0 -1 -1
38 3 3 23.9253 60.5681 61.0659 0 -1 -1
91 7 3 61.0027 -0.248144 5.83635 -1 0 0
4 1 3 61.7261 0.357032 1.29616 -1 0 0
85 7 1 61.2289 1.17387 4.13487 -1 0 0
86 7 3 61.6787 1.98805 4.57776 -1 0 0
88 7 3 60.2018 1.16297 3.8782 -1 0 0
2 1 3 62.4314 2.05783 0.586954 -1 0 0
45 4 3 62.1713 7.84214 0.981891 -1 0 0
87 7 3 61.7954 0.766683 3.36043 -1 0 0
1 1 1 62.3384 0.906383 0.526023 -1 0 0
44 4 3 61.7315 6.1481 0.99179 -1 0 0
46 4 3 62.4728 7.0114 61.9459 -1 0 -1
90 7 3 61.2972 61.3905 4.37191 -1 -1 0
96 7 3 62.318 61.3872 7.12619 -1 -1 0
89 7 2 61.5504 62.3163 5.0289 -1 -1 0
ITEM: TIMESTEP
600
ITEM: NUMBER OF ATOMS
168
ITEM: BOX BOUNDS pp pp pp
0.0000000000000000e+00 6.2399999999999999e+01
0.0000000000000000e+00 6.2399999999999999e+01
0.0000000000000000e+00 6.2399999999999999e+01
ITEM: ATOMS id mol type x y z ix iy iz
10 1 3 1.81888 2.51263 0.155442 0 0 0
5 1 2 0.645055 0.877524 -0.0017091 0 0 0
122 9 3 21.2427 0.696171 5.64752 0 0 0
47 4 2 1.21373 5.83012 1.4155 0 0 0
49 4 3 2.01916 6.26927 2.16109 0 0 0
129 10 3 0.913923 4.93629 5.54632 0 0 0
23 2 3 13.9193 0.310812 1.43129 0 0 0
105 8 3 10.3484 0.996189 7.37407 0 0 0
54 4 3 3.78069 6.79857 0.639486 0 0 0
109 8 1 12.7187 0.217845 5.87286 0 0 0
157 12 3 21.4515 3.75533 4.05343 0 0 0
8 1 2 1.93013 1.55766 0.597383 0 0 0
156 12 3 21.8889 5.47167 3.57805 0 0 0
48 4 3 1.21425 4.74153 1.55471 0 0 0
131 10 2 2.7389 4.19679 5.08026 0 0 0
132 10 3 2.45731 3.07748 4.77165 0 0 0
133 10 3 3.1172 4.15775 6.13796 0 0 0
134 10 2 3.76849 4.52335 4.01545 0 0 0
135 10 3 4.35721 5.35232 4.4325 0 0 0
136 10 3 3.23071 4.88758 3.15673 0 0 0
137 10 1 4.75673 3.50413 3.45905 0 0 0
138 10 3 4.33507 2.54104 3.20498 0 0 0
139 10 3 5.1855 3.80525 2.47581 0 0 0
140 10 3 5.46502 3.05863 4.19708 0 0 0
163 12 3 24.8493 5.14858 5.50466 0 0 0
16 2 3 11.2138 1.12911 2.18577 0 0 0
81 6 1 23.5796 4.91115 0.499898 0 0 0
17 2 3 10.9415 0.49711 0.685205 0 0 0
60 5 3 13.3231 3.74545 0.815874 0 0 0
162 12 2 23.9712 4.9036 4.90481 0 0 0
58 5 3 11.9762 4.60423 0.88848 0 0 0
165 12 1 24.3991 3.64226 4.08539 0 0 0
166 12 3 23.7749 3.2596 3.30182 0 0 0
15 2 1 11.0887 0.14436 1.77794 0 0 0
84 6 3 23.6649 4.68503 1.66469 0 0 0
57 5 1 12.2724 3.67618 0.543197 0 0 0
11 1 1 3.28242 0.825788 0.473475 0 0 0
24 2 3 12.9558 0.103866 -0.0652411 0 0 0
167 12 3 25.3762 3.70012 3.60878 0 0 0
99 8 1 11.1549 1.99744 9.1578 0 0 0
100 8 3 10.1358 1.59489 9.49474 0 0 0
101 8 3 11.7909 1.52261 9.83255 0 0 0
106 8 2 12.5086 0.690827 7.28848 0 0 0
128 10 3 1.17326 4.92889 3.88509 0 0 0
108 8 3 13.4866 1.28743 7.28593 0 0 0
158 12 3 20.7154 5.35223 4.66155 0 0 0
141 11 1 11.3281 6.10622 7.53231 0 0 0
142 11 3 11.0017 5.02357 7.50428 0 0 0
143 11 3 12.3697 6.068 7.88206 0 0 0
144 11 3 10.6588 6.39679 8.4234 0 0 0
145 11 2 10.9508 6.75308 6.1308 0 0 0
146 11 3 11.2115 7.81894 6.1421 0 0 0
147 11 3 9.85991 6.93664 6.13122 0 0 0
148 11 2 11.4854 5.77146 4.97582 0 0 0
149 11 3 11.063 6.03711 4.0567 0 0 0
150 11 3 10.838 4.88056 5.3953 0 0 0
151 11 1 12.9931 5.35483 4.94462 0 0 0
152 11 3 12.8783 4.47055 4.25356 0 0 0
153 11 3 13.5971 5.97961 4.40928 0 0 0
154 11 3 13.5012 5.16704 6.01114 0 0 0
168 12 3 24.7982 2.78859 4.73758 0 0 0
102 8 3 11.1225 3.12321 9.28423 0 0 0
164 12 3 24.0177 5.62068 4.12739 0 0 0
161 12 3 22.488 5.19716 6.27346 0 0 0
7 1 3 0.17789 0.260545 0.791742 0 0 0
59 5 3 11.7386 2.87479 0.851623 0 0 0
127 10 1 1.65853 5.16786 4.76671 0 0 0
111 8 3 12.9993 1.01833 5.17245 0 0 0
103 8 2 11.3287 1.45825 7.69952 0 0 0
126 9 3 22.8657 0.502493 7.51978 0 0 0
160 12 3 22.3949 3.65776 6.0422 0 0 0
159 12 2 22.6166 4.6293 5.51295 0 0 0
155 12 1 21.6061 4.74387 4.37975 0 0 0
79 6 3 21.7796 3.86273 0.343463 0 0 0
9 1 3 1.81864 1.89948 1.60004 0 0 0
130 10 3 2.13346 6.18107 4.79226 0 0 0
104 8 3 11.2018 2.23725 7.03349 0 0 0
82 6 3 24.3602 4.24003 -0.0396268 0 0 0
13 1 3 4.09055 1.10043 1.23692 0 0 0
80 6 3 21.6845 5.55692 0.185293 0 0 0
83 6 3 24.1279 5.80465 0.314095 0 0 0
41 3 3 24.3506 0.476522 0.161853 0 0 0
40 3 3 25.4127 0.389152 61.0917 0 0 -1
67 5 1 12.1768 6.45394 60.5034 0 0 -1
52 4 3 1.63637 5.52825 61.5728 0 0 -1
65 5 3 13.4914 4.94231 60.0692 0 0 -1
73 6 3 21.6639 5.65583 58.9801 0 0 -1
6 1 3 1.09817 0.306655 61.5538 0 0 -1
63 5 3 12.6869 3.05761 60.8531 0 0 -1
62 5 3 11.1659 3.9173 61.2081 0 0 -1
66 5 3 13.8057 5.44955 61.5175 0 0 -1
69 5 3 12.9103 7.03144 60.0473 0 0 -1
74 6 3 20.1493 5.34925 59.8691 0 0 -1
50 4 2 1.8959 6.10309 62.3846 0 0 -1
37 3 3 23.2806 0.521508 60.2442 0 0 -1
61 5 2 12.238 3.92139 61.4413 0 0 -1
76 6 3 22.855 4.45757 60.0483 0 0 -1
72 6 3 21.5102 6.42466 60.6719 0 0 -1
70 5 3 11.417 6.09876 59.7722 0 0 -1
78 6 2 22.2349 4.70505 62.2101 0 0 -1
77 6 3 21.5683 3.52564 60.5792 0 0 -1
64 5 2 13.0254 5.21949 60.8935 0 0 -1
68 5 3 11.6821 6.88362 61.3844 0 0 -1
71 6 1 21.2076 5.58845 59.9785 0 0 -1
56 4 3 3.68141 6.86887 61.3186 0 0 -1
75 6 2 21.9963 4.52287 60.7426 0 0 -1
51 4 3 1.47319 7.03664 61.978 0 0 -1
12 1 3 3.56933 1.13096 61.7609 0 0 -1
35 3 3 21.8076 0.649183 61.7484 0 0 -1
55 4 3 3.98862 5.34037 62.2678 0 0 -1
53 4 1 3.47268 6.27346 62.1772 0 0 -1
25 2 1 14.5039 61.1105 0.367621 0 -1 0
117 9 2 21.429 61.0956 4.83188 0 -1 0
123 9 1 22.8421 62.0964 6.70316 0 -1 0
119 9 3 22.4102 61.3575 4.40148 0 -1 0
124 9 3 22.9023 61.144 7.20901 0 -1 0
22 2 2 13.3418 61.9907 0.856118 0 -1 0
20 2 3 11.7285 60.7405 1.23561 0 -1 0
95 7 1 0.71542 61.2264 5.89775 0 -1 0
34 3 3 22.3083 61.457 0.18099 0 -1 0
14 1 3 3.15758 62.1557 0.843863 0 -1 0
19 2 2 12.1721 61.483 1.76901 0 -1 0
21 2 3 12.4599 61.0127 2.78391 0 -1 0
113 9 1 21.1075 59.6619 5.1673 0 -1 0
114 9 3 21.2562 59.0039 4.35093 0 -1 0
125 9 3 23.6887 62.5473 6.1349 0 -1 0
27 2 3 14.4198 60.3215 1.09871 0 -1 0
97 7 3 1.50182 61.8671 6.44795 0 -1 0
118 9 3 20.6949 61.5185 4.0883 0 -1 0
120 9 2 21.4244 62.1587 5.94142 0 -1 0
107 8 3 12.7024 62.34 8.06103 0 -1 0
98 7 3 0.472555 60.3459 6.60217 0 -1 0
18 2 3 10.0495 62.4115 2.21757 0 -1 0
96 7 3 1.02618 60.7288 5.06312 0 -1 0
116 9 3 20.116 59.6079 5.64842 0 -1 0
110 8 3 11.8354 62.2226 5.43292 0 -1 0
115 9 3 21.9668 59.4051 5.84441 0 -1 0
121 9 3 20.5479 61.9627 6.55059 0 -1 0
26 2 3 15.4648 61.4714 0.675257 0 -1 0
112 8 3 13.633 62.1261 5.734 0 -1 0
36 3 2 23.3898 62.057 60.9153 0 -1 -1
42 3 3 25.064 61.247 62.0225 0 -1 -1
30 3 3 19.9559 61.6482 61.3009 0 -1 -1
32 3 3 20.9379 60.1063 61.0765 0 -1 -1
31 3 3 21.0105 61.5309 59.9538 0 -1 -1
28 2 3 14.4048 60.8003 61.6933 0 -1 -1
29 3 1 20.8577 61.287 60.9641 0 -1 -1
39 3 1 24.64 62.2118 61.6875 0 -1 -1
38 3 3 23.8274 61.3092 60.275 0 -1 -1
33 3 2 22.1125 61.9519 61.717 0 -1 -1
46 4 3 61.3865 5.8423 1.11117 -1 0 0
45 4 3 62.5039 7.35331 0.882738 -1 0 0
44 4 3 62.0345 6.6501 2.50713 -1 0 0
86 7 3 59.7863 0.6803 4.14131 -1 0 0
93 7 3 61.7854 0.533404 6.18105 -1 0 0
43 4 1 62.2512 6.44702 1.44406 -1 0 0
94 7 3 62.2159 0.0932072 4.48318 -1 0 0
1 1 1 61.7402 1.80703 62.037 -1 0 -1
4 1 3 60.7046 1.44868 62.6018 -1 0 -1
3 1 3 61.4552 1.89983 61.0155 -1 0 -1
2 1 3 61.9993 2.80481 62.5575 -1 0 -1
90 7 3 60.3834 60.4107 5.51358 -1 -1 0
89 7 2 60.4068 61.4718 5.55715 -1 -1 0
91 7 3 59.9568 61.8319 6.51813 -1 -1 0
92 7 2 61.8694 62.0772 5.48686 -1 -1 0
88 7 3 58.5759 61.8156 4.17757 -1 -1 0
85 7 1 59.6046 61.9727 4.25915 -1 -1 0
87 7 3 60.1014 61.5982 3.33004 -1 -1 0
ITEM: TIMESTEP
800
ITEM: NUMBER OF ATOMS
168
ITEM: BOX BOUNDS pp pp pp
0.0000000000000000e+00 6.2399999999999999e+01
0.0000000000000000e+00 6.2399999999999999e+01
0.0000000000000000e+00 6.2399999999999999e+01
ITEM: ATOMS id mol type x y z ix iy iz
10 1 3 1.99776 2.18306 0.925577 0 0 0
55 4 3 1.25219 5.81011 -0.385568 0 0 0
122 9 3 20.4587 -0.00551319 4.47083 0 0 0
47 4 2 1.073 7.87861 1.5662 0 0 0
49 4 3 0.679934 8.8357 1.32749 0 0 0
129 10 3 1.88159 5.16258 4.92155 0 0 0
23 2 3 13.0535 1.38673 1.21292 0 0 0
105 8 3 10.915 1.21204 9.28008 0 0 0
54 4 3 2.58879 5.72419 1.09025 0 0 0
109 8 1 11.7947 0.350454 6.625 0 0 0
157 12 3 21.7989 3.16689 3.83597 0 0 0
8 1 2 1.09794 1.55843 0.981668 0 0 0
156 12 3 21.0955 4.43593 4.74898 0 0 0
48 4 3 1.81211 8.03123 2.44258 0 0 0
131 10 2 3.79412 4.35526 5.63293 0 0 0
132 10 3 3.62457 3.4417 6.24832 0 0 0
133 10 3 4.71919 5.00042 5.85881 0 0 0
134 10 2 4.1482 3.77578 4.24499 0 0 0
135 10 3 3.68828 4.43133 3.52023 0 0 0
136 10 3 3.66506 2.89131 4.08287 0 0 0
137 10 1 5.58956 3.5687 3.81727 0 0 0
138 10 3 6.21992 2.66219 4.12233 0 0 0
139 10 3 5.43699 3.46925 2.64158 0 0 0
140 10 3 6.27989 4.43228 3.78222 0 0 0
163 12 3 24.3262 3.50763 6.77397 0 0 0
16 2 3 11.1678 0.761301 2.44545 0 0 0
81 6 1 23.0875 4.83213 0.254206 0 0 0
17 2 3 11.2449 1.39289 0.472241 0 0 0
39 3 1 24.6 0.221405 0.641395 0 0 0
162 12 2 23.9502 3.51862 5.67984 0 0 0
42 3 3 24.2951 0.666733 1.6162 0 0 0
165 12 1 24.9002 2.83339 4.57266 0 0 0
166 12 3 24.6935 3.19314 3.50894 0 0 0
15 2 1 11.0521 0.586131 1.24054 0 0 0
84 6 3 22.8103 5.36722 1.16755 0 0 0
107 8 3 13.3299 0.638586 8.1853 0 0 0
82 6 3 23.1905 3.73703 0.603295 0 0 0
97 7 3 -0.176284 0.457981 5.80498 0 0 0
167 12 3 25.9831 2.88243 4.68294 0 0 0
99 8 1 12.4082 2.66172 9.85536 0 0 0
100 8 3 11.8442 3.10756 10.6548 0 0 0
101 8 3 12.9413 1.8332 10.4763 0 0 0
106 8 2 12.4862 1.31805 7.71463 0 0 0
128 10 3 3.17214 6.03387 4.79847 0 0 0
108 8 3 13.0848 2.13863 7.27844 0 0 0
158 12 3 20.5799 2.72663 5.11773 0 0 0
141 11 1 10.8231 5.22628 6.64543 0 0 0
142 11 3 10.1052 5.148 5.90742 0 0 0
143 11 3 11.3047 4.19729 6.79124 0 0 0
144 11 3 10.2745 5.4414 7.48603 0 0 0
145 11 2 12.0406 6.15618 6.60948 0 0 0
146 11 3 12.9322 5.97634 7.06362 0 0 0
147 11 3 11.9606 7.13652 7.1042 0 0 0
148 11 2 12.4123 6.59551 5.24446 0 0 0
149 11 3 13.0638 7.45905 5.29746 0 0 0
150 11 3 11.2989 6.78533 4.65304 0 0 0
151 11 1 13.0027 5.59164 4.35433 0 0 0
152 11 3 12.4143 4.98031 3.62852 0 0 0
153 11 3 14.0803 5.88347 3.98025 0 0 0
154 11 3 13.1897 4.75426 5.04207 0 0 0
168 12 3 24.5536 1.73426 4.58114 0 0 0
102 8 3 13.3095 3.17184 9.51003 0 0 0
164 12 3 23.8901 4.65047 5.54788 0 0 0
161 12 3 22.075 2.87741 6.6739 0 0 0
46 4 3 0.107083 5.82885 1.86163 0 0 0
53 4 1 2.20746 6.1944 0.101157 0 0 0
127 10 1 2.7446 5.40088 5.52985 0 0 0
111 8 3 11.1788 0.868489 5.98132 0 0 0
103 8 2 11.5729 1.99322 8.80831 0 0 0
51 4 3 2.43968 8.34397 0.206569 0 0 0
160 12 3 22.6137 1.82725 5.51455 0 0 0
159 12 2 22.5428 2.84435 5.66254 0 0 0
155 12 1 21.3619 3.32034 4.8309 0 0 0
50 4 2 1.72864 7.55441 0.265928 0 0 0
9 1 3 0.4704 1.94102 1.84303 0 0 0
130 10 3 2.56637 5.94443 6.40151 0 0 0
104 8 3 10.8259 2.6873 8.55977 0 0 0
22 2 2 13.3826 0.379129 0.828308 0 0 0
26 2 3 15.3073 0.384137 2.07337 0 0 0
34 3 3 22.1085 0.130038 0.86501 0 0 0
33 3 2 22.3344 0.098097 62.2102 0 0 -1
67 5 1 11.811 6.34074 60.0999 0 0 -1
52 4 3 1.16125 7.95881 61.7886 0 0 -1
65 5 3 13.3605 6.18865 61.6684 0 0 -1
73 6 3 20.8536 3.27056 58.9272 0 0 -1
6 1 3 0.962652 1.65323 61.1815 0 0 -1
63 5 3 13.1831 3.63364 61.712 0 0 -1
62 5 3 14.0254 4.3835 60.1387 0 0 -1
66 5 3 11.8535 5.42028 62.2016 0 0 -1
69 5 3 12.1523 5.78701 59.2907 0 0 -1
74 6 3 19.9202 3.79948 60.1345 0 0 -1
60 5 3 10.941 3.08087 60.4122 0 0 -1
3 1 3 0.190936 3.74329 62.5511 0 0 -1
61 5 2 13.0311 4.21729 60.8038 0 0 -1
76 6 3 23.0072 4.4299 59.6727 0 0 -1
72 6 3 20.5201 4.8852 58.9443 0 0 -1
70 5 3 10.6836 6.3826 60.0983 0 0 -1
78 6 2 21.7831 4.69871 61.6171 0 0 -1
77 6 3 22.5479 2.96951 60.3992 0 0 -1
64 5 2 12.4664 5.56261 61.32 0 0 -1
68 5 3 12.1982 7.35723 59.8567 0 0 -1
71 6 1 20.8243 4.05406 59.5798 0 0 -1
56 4 3 2.92314 6.40063 61.8065 0 0 -1
75 6 2 22.1591 3.98395 60.3139 0 0 -1
35 3 3 22.2364 1.20889 62.0394 0 0 -1
80 6 3 21.3653 5.71065 61.4913 0 0 -1
57 5 1 12.0295 3.13996 60.1645 0 0 -1
5 1 2 0.21862 1.79114 62.0678 0 0 -1
59 5 3 12.5297 2.17653 60.4906 0 0 -1
58 5 3 11.8889 3.09802 59.1141 0 0 -1
83 6 3 24.151 5.10201 62.4037 0 0 -1
24 2 3 13.4979 0.386906 62.2054 0 0 -1
79 6 3 20.9955 4.12398 62.1354 0 0 -1
37 3 3 23.9503 -0.184013 60.8047 0 0 -1
41 3 3 25.1681 1.1145 62.6542 0 0 -1
25 2 1 14.6907 62.1918 1.50375 0 -1 0
117 9 2 19.7663 60.7682 4.44022 0 -1 0
123 9 1 21.9072 61.4945 5.71539 0 -1 0
119 9 3 20.2303 60.6699 3.43205 0 -1 0
124 9 3 22.4126 60.5258 5.57424 0 -1 0
116 9 3 18.773 59.2958 5.40529 0 -1 0
126 9 3 22.0155 61.7708 6.72034 0 -1 0
12 1 3 1.89304 62.3389 0.254128 0 -1 0
121 9 3 19.9322 62.0304 6.13773 0 -1 0
14 1 3 0.50715 61.9378 1.26908 0 -1 0
19 2 2 12.0756 61.9113 0.877882 0 -1 0
21 2 3 11.7702 61.2503 1.66173 0 -1 0
113 9 1 19.5576 59.4151 4.86666 0 -1 0
114 9 3 19.5555 58.7149 4.03954 0 -1 0
40 3 3 25.1912 61.7484 0.867592 0 -1 0
27 2 3 14.5862 61.4162 2.17209 0 -1 0
112 8 3 12.6504 62.3657 6.10346 0 -1 0
118 9 3 18.8348 61.1327 4.20318 0 -1 0
120 9 2 20.4895 61.7157 5.365 0 -1 0
115 9 3 20.5086 59.1397 5.32975 0 -1 0
110 8 3 11.3824 61.9429 7.30588 0 -1 0
28 2 3 15.3845 61.7547 0.72132 0 -1 0
125 9 3 22.5107 62.3039 5.31935 0 -1 0
13 1 3 1.89632 62.3972 2.16369 0 -1 0
18 2 3 9.98021 62.7132 1.16305 0 -1 0
11 1 1 1.41343 62.5049 1.2183 0 -1 0
36 3 2 23.631 61.9678 61.8866 0 -1 -1
31 3 3 21.6029 61.3953 60.6175 0 -1 -1
30 3 3 20.2886 62.0412 61.4539 0 -1 -1
32 3 3 21.0534 60.5792 62.0824 0 -1 -1
29 3 1 21.2856 61.6129 61.6213 0 -1 -1
38 3 3 23.6316 60.7972 62.127 0 -1 -1
20 2 3 11.8522 61.4788 62.2902 0 -1 -1
98 7 3 60.6487 0.523436 6.87897 -1 0 0
45 4 3 61.3906 7.10536 1.38813 -1 0 0
44 4 3 62.0448 6.92794 3.01037 -1 0 0
2 1 3 60.9275 3.07642 0.103869 -1 0 0
43 4 1 62.329 6.96199 1.94379 -1 0 0
1 1 1 61.942 3.06593 62.0822 -1 0 -1
4 1 3 61.8102 3.43464 61.0389 -1 0 -1
7 1 3 61.9753 0.898179 61.9405 -1 0 -1
90 7 3 58.9496 61.0081 5.30779 -1 -1 0
89 7 2 59.6598 61.4557 4.62577 -1 -1 0
95 7 1 61.4419 62.3359 6.33804 -1 -1 0
92 7 2 60.9384 61.1252 5.61389 -1 -1 0
88 7 3 58.5009 60.8103 2.93652 -1 -1 0
85 7 1 59.4379 60.6041 3.34726 -1 -1 0
87 7 3 59.3083 59.4431 3.52627 -1 -1 0
94 7 3 60.8141 60.3395 6.49619 -1 -1 0
86 7 3 60.3334 60.6178 2.71061 -1 -1 0
96 7 3 61.9119 62.239 7.34315 -1 -1 0
93 7 3 61.8291 60.9199 4.88216 -1 -1 0
91 7 3 59.448 62.4356 4.47997 -1 -1 0
ITEM: TIMESTEP
1000
ITEM: NUMBER OF ATOMS
168
ITEM: BOX BOUNDS pp pp pp
0.0000000000000000e+00 6.2399999999999999e+01
0.0000000000000000e+00 6.2399999999999999e+01
0.0000000000000000e+00 6.2399999999999999e+01
ITEM: ATOMS id mol type x y z ix iy iz
10 1 3 0.958109 3.02037 0.468079 0 0 0
11 1 1 0.677137 0.688258 0.617871 0 0 0
83 6 3 21.7588 3.64735 1.49548 0 0 0
47 4 2 0.666368 8.10095 0.193473 0 0 0
118 9 3 18.8761 0.103119 4.25822 0 0 0
129 10 3 3.13988 3.86205 4.37119 0 0 0
84 6 3 21.6966 5.25289 0.792176 0 0 0
105 8 3 11.2775 2.60903 9.05153 0 0 0
54 4 3 3.47066 5.70524 0.167553 0 0 0
109 8 1 11.7027 1.06436 6.79048 0 0 0
157 12 3 22.1439 4.01061 4.39525 0 0 0
8 1 2 0.200048 2.22768 0.491401 0 0 0
156 12 3 21.0238 2.32445 4.34348 0 0 0
48 4 3 1.12641 8.58785 1.14497 0 0 0
131 10 2 4.21474 5.63229 4.75089 0 0 0
132 10 3 4.14274 5.24214 5.81171 0 0 0
133 10 3 4.23344 6.69803 4.9609 0 0 0
134 10 2 5.35202 5.14525 3.84038 0 0 0
135 10 3 5.89836 6.03966 3.55279 0 0 0
136 10 3 5.1247 4.84019 2.79433 0 0 0
137 10 1 6.16233 3.85142 4.34892 0 0 0
138 10 3 5.38307 3.34117 5.10402 0 0 0
139 10 3 6.84957 3.1493 3.59091 0 0 0
140 10 3 6.92308 4.43695 4.99959 0 0 0
163 12 3 24.8154 2.60521 6.49256 0 0 0
16 2 3 10.7465 0.323171 1.9778 0 0 0
81 6 1 21.3898 4.28829 0.763789 0 0 0
17 2 3 12.0876 1.61128 2.07955 0 0 0
63 5 3 11.8274 4.00784 0.307959 0 0 0
162 12 2 24.3821 2.62722 5.46865 0 0 0
18 2 3 11.1941 1.0729 0.655317 0 0 0
165 12 1 25.3942 1.59211 4.90689 0 0 0
166 12 3 25.5715 1.72582 3.79127 0 0 0
15 2 1 11.5835 0.805039 1.56306 0 0 0
107 8 3 11.6043 -0.0377079 8.63834 0 0 0
82 6 3 20.3692 4.63459 0.999198 0 0 0
110 8 3 10.6609 1.16646 6.88132 0 0 0
112 8 3 11.8642 0.203499 6.06524 0 0 0
167 12 3 26.4751 1.89022 5.33628 0 0 0
99 8 1 13.286 2.06024 10.1996 0 0 0
100 8 3 12.9638 2.90487 10.6383 0 0 0
101 8 3 13.1809 1.30911 11.0562 0 0 0
106 8 2 12.2336 0.784404 8.24195 0 0 0
128 10 3 2.60135 5.10477 3.3873 0 0 0
108 8 3 13.2698 0.388604 8.12966 0 0 0
158 12 3 22.4302 2.77394 3.31245 0 0 0
141 11 1 10.6747 6.24053 5.01583 0 0 0
142 11 3 10.9456 7.31161 4.91264 0 0 0
143 11 3 10.7003 5.73306 3.91194 0 0 0
144 11 3 9.60544 6.02342 5.28906 0 0 0
145 11 2 11.7223 5.59075 5.78499 0 0 0
146 11 3 11.3614 4.58067 5.95763 0 0 0
147 11 3 11.6825 5.92097 6.81562 0 0 0
148 11 2 13.1425 5.41181 5.34381 0 0 0
149 11 3 13.6496 4.86141 6.13205 0 0 0
150 11 3 13.6658 6.33209 4.95997 0 0 0
151 11 1 13.0868 4.36777 4.19789 0 0 0
152 11 3 12.4797 4.74496 3.36316 0 0 0
153 11 3 14.0185 4.29705 3.9057 0 0 0
154 11 3 12.7372 3.41195 4.33359 0 0 0
168 12 3 25.2448 0.55327 5.10068 0 0 0
102 8 3 14.2237 2.19678 9.78598 0 0 0
164 12 3 24.4218 3.66913 5.20523 0 0 0
161 12 3 22.4802 2.53809 6.59043 0 0 0
28 2 3 15.8441 0.727905 1.10738 0 0 0
14 1 3 0.197746 -0.0894821 1.23828 0 0 0
127 10 1 2.89334 5.02974 4.37705 0 0 0
111 8 3 11.9379 1.8054 6.02881 0 0 0
103 8 2 12.2248 2.04485 9.02113 0 0 0
41 3 3 25.1556 0.137638 1.55965 0 0 0
160 12 3 22.6925 1.13537 5.52536 0 0 0
159 12 2 22.8402 2.28122 5.52689 0 0 0
155 12 1 21.9647 2.85324 4.38352 0 0 0
25 2 1 14.832 0.452349 0.653432 0 0 0
34 3 3 21.8066 0.207377 0.310071 0 0 0
130 10 3 1.97428 5.21174 4.99044 0 0 0
104 8 3 12.7183 2.80798 8.3525 0 0 0
42 3 3 23.7579 1.02858 1.90104 0 0 0